
.Version 7.8.2 of ABINIT 
.(sequential version, prepared for a x86_64_linux_gnu5.2 computer) 

.Copyright (C) 1998-2014 ABINIT group . 
 ABINIT comes with ABSOLUTELY NO WARRANTY.
 It is free software, and you are welcome to redistribute it
 under certain conditions (GNU General Public License,
 see ~abinit/COPYING or http://www.gnu.org/copyleft/gpl.txt).

 ABINIT is a project of the Universite Catholique de Louvain,
 Corning Inc. and other collaborators, see ~abinit/doc/developers/contributors.txt .
 Please read ~abinit/doc/users/acknowledgments.html for suggested
 acknowledgments of the ABINIT effort.
 For more information, see http://www.abinit.org .

.Starting date : Mon 29 Oct 2018.
- ( at 17h49 )
  
- input  file    -> agcl.in
- output file    -> agcl.out
- root for input  files -> agcl.i
- root for output files -> agcl.o


 DATASET    1 : space group Fm -3 m (#225); Bravais cF (face-center cubic)
================================================================================
 Values of the parameters that define the memory need for DATASET  1.
   intxc =         0  ionmov =         0    iscf =         7 xclevel =         1
  lmnmax =         2   lnmax =         2   mband =        10  mffmem =         1
P  mgfft =        30   mkmem =        28 mpssoang=         3     mpw =       866
  mqgrid =      3001   natom =         2    nfft =     27000    nkpt =        28
  nloalg =         4  nspden =         1 nspinor =         1  nsppol =         1
    nsym =        48  n1xccc =      2501  ntypat =         2  occopt =         1
================================================================================
P This job should need less than                      12.584 Mbytes of memory.
  Rough estimation (10% accuracy) of disk space for files :
_ WF disk file :      3.702 Mbytes ; DEN or POT disk file :      0.208 Mbytes.
================================================================================


 DATASET    2 : space group Fm -3 m (#225); Bravais cF (face-center cubic)
================================================================================
 Values of the parameters that define the memory need for DATASET  2.
   intxc =         0  ionmov =         0    iscf =        -2 xclevel =         1
  lmnmax =         2   lnmax =         2   mband =        13  mffmem =         1
P  mgfft =        30   mkmem =        40 mpssoang=         3     mpw =       869
  mqgrid =      3001   natom =         2    nfft =     27000    nkpt =        40
  nloalg =         4  nspden =         1 nspinor =         1  nsppol =         1
    nsym =        48  n1xccc =      2501  ntypat =         2  occopt =         1
================================================================================
P This job should need less than                      12.643 Mbytes of memory.
  Rough estimation (10% accuracy) of disk space for files :
_ WF disk file :      6.897 Mbytes ; DEN or POT disk file :      0.208 Mbytes.
================================================================================

--------------------------------------------------------------------------------
------------- Echo of variables that govern the present computation ------------
--------------------------------------------------------------------------------
-
- outvars: echo of selected default values                                      
-   accesswff0 =  0 , fftalg0 =112 , wfoptalg0 =  0
-
- outvars: echo of global parameters not present in the input file              
-  max_nthreads =    0
-
 -outvars: echo values of preprocessed input variables --------
            acell      7.5135511044E+00  7.5135511044E+00  7.5135511044E+00 Bohr
              amu      1.07868200E+02  3.54527000E+01
           diemac      1.20000000E+01
             ecut      3.00000000E+01 Hartree
           enunit1          0
           enunit2          1
-          fftalg         112
           getden1          0
           getden2         -1
             iscf1          7
             iscf2         -2
           istwfk2       3    0    0    0    0    0    0    0    0    0
                         2    0    0    0    0    0    0    0    0    0
                         0    0    8    0    0    0    0    0    0    0
                         0    0    0    0    0    0    0    0    0    0
           jdtset        1    2
              kpt1    -8.33333333E-02 -1.66666667E-01  0.00000000E+00
                      -8.33333333E-02 -3.33333333E-01  0.00000000E+00
                      -1.66666667E-01 -2.50000000E-01  0.00000000E+00
                      -8.33333333E-02 -2.50000000E-01  8.33333333E-02
                      -8.33333333E-02  5.00000000E-01  0.00000000E+00
                      -1.66666667E-01 -4.16666667E-01  0.00000000E+00
                      -8.33333333E-02 -4.16666667E-01  8.33333333E-02
                      -2.50000000E-01 -3.33333333E-01  0.00000000E+00
                      -1.66666667E-01 -3.33333333E-01  8.33333333E-02
                      -8.33333333E-02 -3.33333333E-01  1.66666667E-01
                      -8.33333333E-02  3.33333333E-01  0.00000000E+00
                      -1.66666667E-01  4.16666667E-01  0.00000000E+00
                      -2.50000000E-01  5.00000000E-01  0.00000000E+00
                      -1.66666667E-01  5.00000000E-01  8.33333333E-02
                      -3.33333333E-01 -4.16666667E-01  0.00000000E+00
                      -2.50000000E-01 -4.16666667E-01  8.33333333E-02
                      -1.66666667E-01 -4.16666667E-01  1.66666667E-01
                      -8.33333333E-02 -4.16666667E-01  2.50000000E-01
                      -8.33333333E-02  1.66666667E-01  0.00000000E+00
                      -1.66666667E-01  2.50000000E-01  0.00000000E+00
                      -2.50000000E-01  3.33333333E-01  0.00000000E+00
                      -3.33333333E-01  4.16666667E-01  0.00000000E+00
                      -4.16666667E-01  5.00000000E-01  0.00000000E+00
                      -3.33333333E-01  5.00000000E-01  8.33333333E-02
                      -2.50000000E-01  5.00000000E-01  1.66666667E-01
                      -8.33333333E-02  0.00000000E+00  0.00000000E+00
                      -2.50000000E-01  0.00000000E+00  0.00000000E+00
                      -4.16666667E-01  0.00000000E+00  0.00000000E+00
              kpt2     5.00000000E-01  0.00000000E+00  0.00000000E+00
                       4.50000000E-01  0.00000000E+00  0.00000000E+00
                       4.00000000E-01  0.00000000E+00  0.00000000E+00
                       3.50000000E-01  0.00000000E+00  0.00000000E+00
                       3.00000000E-01  0.00000000E+00  0.00000000E+00
                       2.50000000E-01  0.00000000E+00  0.00000000E+00
                       2.00000000E-01  0.00000000E+00  0.00000000E+00
                       1.50000000E-01  0.00000000E+00  0.00000000E+00
                       1.00000000E-01  0.00000000E+00  0.00000000E+00
                       5.00000000E-02  0.00000000E+00  0.00000000E+00
                       0.00000000E+00  0.00000000E+00  0.00000000E+00
                       0.00000000E+00  4.16666667E-02  4.16666667E-02
                       0.00000000E+00  8.33333333E-02  8.33333333E-02
                       0.00000000E+00  1.25000000E-01  1.25000000E-01
                       0.00000000E+00  1.66666667E-01  1.66666667E-01
                       0.00000000E+00  2.08333333E-01  2.08333333E-01
                       0.00000000E+00  2.50000000E-01  2.50000000E-01
                       0.00000000E+00  2.91666667E-01  2.91666667E-01
                       0.00000000E+00  3.33333333E-01  3.33333333E-01
                       0.00000000E+00  3.75000000E-01  3.75000000E-01
                       0.00000000E+00  4.16666667E-01  4.16666667E-01
                       0.00000000E+00  4.58333333E-01  4.58333333E-01
                       0.00000000E+00  5.00000000E-01  5.00000000E-01
                       5.88235294E-02  5.29411765E-01  5.29411765E-01
                       1.17647059E-01  5.58823529E-01  5.58823529E-01
                       1.76470588E-01  5.88235294E-01  5.88235294E-01
                       2.35294118E-01  6.17647059E-01  6.17647059E-01
                       2.94117647E-01  6.47058824E-01  6.47058824E-01
                       3.52941176E-01  6.76470588E-01  6.76470588E-01
                       4.11764706E-01  7.05882353E-01  7.05882353E-01
                       4.70588235E-01  7.35294118E-01  7.35294118E-01
                       5.29411765E-01  7.64705882E-01  7.64705882E-01
                       5.88235294E-01  7.94117647E-01  7.94117647E-01
                       6.47058824E-01  8.23529412E-01  8.23529412E-01
                       7.05882353E-01  8.52941176E-01  8.52941176E-01
                       7.64705882E-01  8.82352941E-01  8.82352941E-01
                       8.23529412E-01  9.11764706E-01  9.11764706E-01
                       8.82352941E-01  9.41176471E-01  9.41176471E-01
                       9.41176471E-01  9.70588235E-01  9.70588235E-01
                       1.00000000E+00  1.00000000E+00  1.00000000E+00
           kptopt1          1
           kptopt2         -3
         kptrlatt        6   -6    6     -6    6    6     -6   -6    6
          kptrlen1     4.50813066E+01
          kptrlen2     3.00000000E+01
P           mkmem1         28
P           mkmem2         40
            natom           2
            nband1         10
            nband2         13
           nbdbuf1          0
           nbdbuf2          2
           ndtset           2
            ngfft          30      30      30
             nkpt1         28
             nkpt2         40
            nstep          40
             nsym          48
           ntypat           2
              occ      2.000000  2.000000  2.000000  2.000000  2.000000  2.000000
                       2.000000  2.000000  2.000000  0.000000
            rprim      0.0000000000E+00  5.0000000000E-01  5.0000000000E-01
                       5.0000000000E-01  0.0000000000E+00  5.0000000000E-01
                       5.0000000000E-01  5.0000000000E-01  0.0000000000E+00
           shiftk      5.00000000E-01  5.00000000E-01  5.00000000E-01
          spgroup         225
           symrel      1  0  0   0  1  0   0  0  1      -1  0  0   0 -1  0   0  0 -1
                       0 -1  1   0 -1  0   1 -1  0       0  1 -1   0  1  0  -1  1  0
                      -1  0  0  -1  0  1  -1  1  0       1  0  0   1  0 -1   1 -1  0
                       0  1 -1   1  0 -1   0  0 -1       0 -1  1  -1  0  1   0  0  1
                      -1  0  0  -1  1  0  -1  0  1       1  0  0   1 -1  0   1  0 -1
                       0 -1  1   1 -1  0   0 -1  0       0  1 -1  -1  1  0   0  1  0
                       1  0  0   0  0  1   0  1  0      -1  0  0   0  0 -1   0 -1  0
                       0  1 -1   0  0 -1   1  0 -1       0 -1  1   0  0  1  -1  0  1
                      -1  0  1  -1  1  0  -1  0  0       1  0 -1   1 -1  0   1  0  0
                       0 -1  0   1 -1  0   0 -1  1       0  1  0  -1  1  0   0  1 -1
                       1  0 -1   0  0 -1   0  1 -1      -1  0  1   0  0  1   0 -1  1
                       0  1  0   0  0  1   1  0  0       0 -1  0   0  0 -1  -1  0  0
                       1  0 -1   0  1 -1   0  0 -1      -1  0  1   0 -1  1   0  0  1
                       0 -1  0   0 -1  1   1 -1  0       0  1  0   0  1 -1  -1  1  0
                      -1  0  1  -1  0  0  -1  1  0       1  0 -1   1  0  0   1 -1  0
                       0  1  0   1  0  0   0  0  1       0 -1  0  -1  0  0   0  0 -1
                       0  0 -1   0  1 -1   1  0 -1       0  0  1   0 -1  1  -1  0  1
                       1 -1  0   0 -1  1   0 -1  0      -1  1  0   0  1 -1   0  1  0
                       0  0  1   1  0  0   0  1  0       0  0 -1  -1  0  0   0 -1  0
                      -1  1  0  -1  0  0  -1  0  1       1 -1  0   1  0  0   1  0 -1
                       0  0  1   0  1  0   1  0  0       0  0 -1   0 -1  0  -1  0  0
                       1 -1  0   0 -1  0   0 -1  1      -1  1  0   0  1  0   0  1 -1
                       0  0 -1   1  0 -1   0  1 -1       0  0  1  -1  0  1   0 -1  1
                      -1  1  0  -1  0  1  -1  0  0       1 -1  0   1  0 -1   1  0  0
           toldfe1     1.00000000E-06 Hartree
           toldfe2     0.00000000E+00 Hartree
           tolwfr1     0.00000000E+00
           tolwfr2     1.00000000E-12
            typat      1  2
              wtk1       0.02778    0.02778    0.02778    0.05556    0.02778    0.02778
                         0.05556    0.02778    0.05556    0.05556    0.02778    0.02778
                         0.02778    0.05556    0.02778    0.05556    0.05556    0.05556
                         0.02778    0.02778    0.02778    0.02778    0.02778    0.05556
                         0.05556    0.00926    0.00926    0.00926
              wtk2       1.00000    1.00000    1.00000    1.00000    1.00000    1.00000
                         1.00000    1.00000    1.00000    1.00000    1.00000    1.00000
                         1.00000    1.00000    1.00000    1.00000    1.00000    1.00000
                         1.00000    1.00000    1.00000    1.00000    1.00000    1.00000
                         1.00000    1.00000    1.00000    1.00000    1.00000    1.00000
                         1.00000    1.00000    1.00000    1.00000    1.00000    1.00000
                         1.00000    1.00000    1.00000    1.00000
           xangst      0.0000000000E+00  0.0000000000E+00  0.0000000000E+00
                       1.9880000000E+00  1.9880000000E+00  1.9880000000E+00
            xcart      0.0000000000E+00  0.0000000000E+00  0.0000000000E+00
                       3.7567755522E+00  3.7567755522E+00  3.7567755522E+00
             xred      0.0000000000E+00  0.0000000000E+00  0.0000000000E+00
                       5.0000000000E-01  5.0000000000E-01  5.0000000000E-01
            znucl       47.00000   17.00000

================================================================================

 chkinp: Checking input parameters for consistency, jdtset=   1.

 chkinp: Checking input parameters for consistency, jdtset=   2.

================================================================================
== DATASET  1 ==================================================================
-   nproc =    1

 Exchange-correlation functional for the present dataset will be:
  LDA: new Teter (4/93) with spin-polarized option - ixc=1
 Citation for XC functional:
  S. Goedecker, M. Teter, J. Huetter, PRB 54, 1703 (1996)

 Real(R)+Recip(G) space primitive vectors, cartesian coordinates (Bohr,Bohr^-1):
 R(1)=  0.0000000  3.7567756  3.7567756  G(1)= -0.1330929  0.1330929  0.1330929
 R(2)=  3.7567756  0.0000000  3.7567756  G(2)=  0.1330929 -0.1330929  0.1330929
 R(3)=  3.7567756  3.7567756  0.0000000  G(3)=  0.1330929  0.1330929 -0.1330929
 Unit cell volume ucvol=  1.0604147E+02 bohr^3
 Angles (23,13,12)=  6.00000000E+01  6.00000000E+01  6.00000000E+01 degrees

 getcut: wavevector=  0.0000  0.0000  0.0000  ngfft=  30  30  30
         ecut(hartree)=     30.000   => boxcut(ratio)=   2.29270

 getcut : COMMENT -
  Note that boxcut > 2.2 ; recall that boxcut=Gcut(box)/Gcut(sphere) = 2
  is sufficient for exact treatment of convolution.
  Such a large boxcut is a waste : you could raise ecut
  e.g. ecut=   39.423557 Hartrees makes boxcut=2


--- Pseudopotential description ------------------------------------------------
- pspini: atom type   1  psp file is 47ag.pspnc
- pspatm: opening atomic psp file    47ag.pspnc
-  Troullier-Martins psp for element  Ag        Thu Oct 27 17:42:33 EDT 1994
- 47.00000  11.00000    940714                znucl, zion, pspdat
    1    1    2    0      2001   0.00000      pspcod,pspxc,lmax,lloc,mmax,r2well
    0   6.253  10.388    0   2.3392488        l,e99.0,e99.9,nproj,rcpsp
   0.00000000   0.00000000   0.00000000   0.00000000     rms, ekb1, ekb2, epsatm
    1   2.008   4.022    1   2.9663571        l,e99.0,e99.9,nproj,rcpsp
   0.00000000   0.00000000   0.00000000   0.00000000     rms, ekb1, ekb2, epsatm
    2  14.734  18.993    1   2.3392488        l,e99.0,e99.9,nproj,rcpsp
   0.00000000   0.00000000   0.00000000   0.00000000     rms, ekb1, ekb2, epsatm
    1.57659479851128    2.78621807848118    9.52845215553595   rchrg,fchrg,qchrg
 pspatm: epsatm=   85.43596968
         --- l  ekb(1:nproj) -->
             1    0.660098
             2   -6.598154
 pspatm: atomic psp has been read  and splines computed

- pspini: atom type   2  psp file is 17cl.pspnc
- pspatm: opening atomic psp file    17cl.pspnc
-  Troullier-Martins psp for element  Cl        Thu Oct 27 17:32:09 EDT 1994
- 17.00000   7.00000    940714                znucl, zion, pspdat
    1    1    2    2      2001   0.00000      pspcod,pspxc,lmax,lloc,mmax,r2well
    0  10.493  25.212    1   1.6350894        l,e99.0,e99.9,nproj,rcpsp
   0.00000000   0.00000000   0.00000000   0.00000000     rms, ekb1, ekb2, epsatm
    1   5.554   8.510    1   1.6350894        l,e99.0,e99.9,nproj,rcpsp
   0.00000000   0.00000000   0.00000000   0.00000000     rms, ekb1, ekb2, epsatm
    2   0.000   0.000    0   1.6350894        l,e99.0,e99.9,nproj,rcpsp
   0.00000000   0.00000000   0.00000000   0.00000000     rms, ekb1, ekb2, epsatm
    1.23315314129373    1.11669953786602    1.82740311420084   rchrg,fchrg,qchrg
 pspatm: epsatm=    2.73037554
         --- l  ekb(1:nproj) -->
             0    6.290146
             1    3.746067
 pspatm: atomic psp has been read  and splines computed

   1.58699421E+03                                ecore*ucvol(ha*bohr**3)
--------------------------------------------------------------------------------

P newkpt: treating     10 bands with npw=     846 for ikpt=   1 by node    0
P newkpt: treating     10 bands with npw=     840 for ikpt=   2 by node    0
P newkpt: treating     10 bands with npw=     842 for ikpt=   3 by node    0
P newkpt: treating     10 bands with npw=     838 for ikpt=   4 by node    0
P newkpt: treating     10 bands with npw=     830 for ikpt=   5 by node    0
P newkpt: treating     10 bands with npw=     828 for ikpt=   6 by node    0
P newkpt: treating     10 bands with npw=     830 for ikpt=   7 by node    0
P newkpt: treating     10 bands with npw=     832 for ikpt=   8 by node    0
P newkpt: treating     10 bands with npw=     835 for ikpt=   9 by node    0
P newkpt: treating     10 bands with npw=     830 for ikpt=  10 by node    0
P newkpt: treating     10 bands with npw=     830 for ikpt=  11 by node    0
P newkpt: treating     10 bands with npw=     833 for ikpt=  12 by node    0
P newkpt: treating     10 bands with npw=     830 for ikpt=  13 by node    0
P newkpt: treating     10 bands with npw=     831 for ikpt=  14 by node    0
P newkpt: treating     10 bands with npw=     830 for ikpt=  15 by node    0
P newkpt: treating     10 bands with npw=     831 for ikpt=  16 by node    0
P newkpt: treating     10 bands with npw=     831 for ikpt=  17 by node    0
P newkpt: treating     10 bands with npw=     832 for ikpt=  18 by node    0
P newkpt: treating     10 bands with npw=     839 for ikpt=  19 by node    0
P newkpt: treating     10 bands with npw=     834 for ikpt=  20 by node    0
P newkpt: treating     10 bands with npw=     835 for ikpt=  21 by node    0
P newkpt: treating     10 bands with npw=     825 for ikpt=  22 by node    0
P newkpt: treating     10 bands with npw=     818 for ikpt=  23 by node    0
P newkpt: treating     10 bands with npw=     827 for ikpt=  24 by node    0
P newkpt: treating     10 bands with npw=     832 for ikpt=  25 by node    0
P newkpt: treating     10 bands with npw=     866 for ikpt=  26 by node    0
P newkpt: treating     10 bands with npw=     839 for ikpt=  27 by node    0
P newkpt: treating     10 bands with npw=     835 for ikpt=  28 by node    0

_setup2: Arith. and geom. avg. npw (full set) are     832.574     832.553

================================================================================

     iter   Etot(hartree)      deltaE(h)  residm     vres2
 ETOT  1  -59.287758624718    -5.929E+01 1.070E-01 3.374E+03
 ETOT  2  -59.740816514600    -4.531E-01 2.141E-02 8.947E+02
 ETOT  3  -59.944540820732    -2.037E-01 1.314E-02 4.415E+01
 ETOT  4  -59.954848993961    -1.031E-02 8.452E-04 7.537E-01
 ETOT  5  -59.955027197994    -1.782E-04 4.571E-04 2.596E-02
 ETOT  6  -59.955033591137    -6.393E-06 1.907E-04 1.814E-05
 ETOT  7  -59.955033637745    -4.661E-08 2.765E-04 6.125E-07
 ETOT  8  -59.955033641113    -3.367E-09 1.202E-04 1.299E-07

 At SCF step    8, etot is converged : 
  for the second time, diff in etot=  3.367E-09 < toldfe=  1.000E-06

 Cartesian components of stress tensor (hartree/bohr^3)
  sigma(1 1)= -2.22598704E-02  sigma(3 2)=  0.00000000E+00
  sigma(2 2)= -2.22598704E-02  sigma(3 1)=  0.00000000E+00
  sigma(3 3)= -2.22598704E-02  sigma(2 1)=  0.00000000E+00

================================================================================

 ----iterations are completed or convergence reached----

 Mean square residual over all n,k,spin=   4.7954E-07; max=  1.2019E-04
  -0.0833 -0.1667  0.0000    1  1.63800E-07 kpt; spin; max resid(k); each band:
  2.50E-12 2.72E-12 1.47E-12 1.87E-12 6.57E-13 1.24E-13 2.29E-12 1.90E-12
  2.61E-12 1.64E-07
  -0.0833 -0.3333  0.0000    1  1.05800E-08 kpt; spin; max resid(k); each band:
  1.29E-12 2.92E-12 3.24E-12 3.05E-12 5.49E-13 6.14E-14 3.34E-12 3.86E-12
  2.00E-11 1.06E-08
  -0.1667 -0.2500  0.0000    1  3.76366E-06 kpt; spin; max resid(k); each band:
  1.30E-12 2.64E-12 1.49E-12 2.56E-12 2.01E-12 3.82E-13 3.68E-12 2.88E-12
  3.87E-12 3.76E-06
  -0.0833 -0.2500  0.0833    1  2.61585E-07 kpt; spin; max resid(k); each band:
  1.37E-12 2.90E-12 2.93E-12 2.57E-12 7.20E-13 3.70E-13 3.51E-12 3.54E-12
  6.29E-12 2.62E-07
  -0.0833  0.5000  0.0000    1  1.26672E-07 kpt; spin; max resid(k); each band:
  1.37E-12 1.82E-12 3.34E-12 3.27E-12 5.62E-13 1.51E-13 1.75E-12 4.49E-11
  9.54E-09 1.27E-07
  -0.1667 -0.4167  0.0000    1  1.20187E-04 kpt; spin; max resid(k); each band:
  1.84E-12 2.71E-12 2.89E-12 2.95E-12 1.87E-12 9.64E-14 3.11E-12 5.50E-12
  3.58E-10 1.20E-04
  -0.0833 -0.4167  0.0833    1  1.40471E-07 kpt; spin; max resid(k); each band:
  1.69E-12 2.04E-12 3.30E-12 2.84E-12 8.37E-13 3.31E-13 2.09E-12 1.62E-11
  3.02E-10 1.40E-07
  -0.2500 -0.3333  0.0000    1  1.62359E-09 kpt; spin; max resid(k); each band:
  1.99E-12 2.42E-12 1.03E-12 2.80E-12 3.03E-12 8.11E-13 3.56E-12 3.34E-12
  5.64E-12 1.62E-09
  -0.1667 -0.3333  0.0833    1  3.68662E-07 kpt; spin; max resid(k); each band:
  1.86E-12 2.31E-12 2.33E-12 2.89E-12 1.78E-12 5.08E-13 3.11E-12 3.32E-12
  4.89E-11 3.69E-07
  -0.0833 -0.3333  0.1667    1  9.97146E-07 kpt; spin; max resid(k); each band:
  1.88E-12 2.14E-12 3.63E-12 2.75E-12 5.36E-13 6.23E-13 2.68E-12 3.01E-12
  1.02E-10 9.97E-07
  -0.0833  0.3333  0.0000    1  1.12219E-09 kpt; spin; max resid(k); each band:
  1.29E-12 2.44E-12 4.12E-12 3.01E-12 1.31E-13 3.19E-13 2.73E-12 7.49E-12
  1.12E-09 7.51E-10
  -0.1667  0.4167  0.0000    1  3.78062E-10 kpt; spin; max resid(k); each band:
  1.88E-12 1.66E-12 2.45E-12 3.23E-12 1.30E-13 9.54E-13 1.87E-12 5.79E-12
  2.96E-11 3.78E-10
  -0.2500  0.5000  0.0000    1  5.84927E-10 kpt; spin; max resid(k); each band:
  2.78E-12 1.93E-12 2.08E-12 2.77E-12 2.04E-12 4.84E-14 1.84E-12 2.97E-12
  5.71E-12 5.85E-10
  -0.1667  0.5000  0.0833    1  5.47189E-08 kpt; spin; max resid(k); each band:
  2.34E-12 1.84E-12 2.24E-12 2.66E-12 1.59E-12 4.72E-13 1.72E-12 5.61E-12
  6.35E-12 5.47E-08
  -0.3333 -0.4167  0.0000    1  4.35599E-11 kpt; spin; max resid(k); each band:
  3.12E-12 1.38E-12 7.84E-13 2.68E-12 3.25E-12 1.48E-12 3.19E-12 3.36E-12
  4.62E-12 4.36E-11
  -0.2500 -0.4167  0.0833    1  1.02914E-09 kpt; spin; max resid(k); each band:
  3.00E-12 1.72E-12 1.88E-12 2.66E-12 2.51E-12 6.73E-13 2.63E-12 3.01E-12
  6.41E-12 1.03E-09
  -0.1667 -0.4167  0.1667    1  6.37184E-06 kpt; spin; max resid(k); each band:
  2.60E-12 1.85E-12 2.29E-12 2.31E-12 1.41E-12 1.21E-12 2.35E-12 2.95E-12
  5.06E-12 6.37E-06
  -0.0833 -0.4167  0.2500    1  8.83375E-09 kpt; spin; max resid(k); each band:
  2.76E-12 1.83E-12 2.26E-12 2.79E-12 1.22E-12 1.43E-12 1.87E-12 2.53E-12
  3.70E-12 8.83E-09
  -0.0833  0.1667  0.0000    1  2.25711E-07 kpt; spin; max resid(k); each band:
  1.52E-12 2.91E-12 2.91E-12 2.21E-12 1.27E-13 2.40E-13 3.07E-12 3.10E-12
  2.85E-12 2.26E-07
  -0.1667  0.2500  0.0000    1  7.12695E-09 kpt; spin; max resid(k); each band:
  1.44E-12 2.47E-12 4.17E-12 2.74E-12 7.04E-14 4.83E-13 3.24E-12 3.77E-12
  3.52E-11 7.13E-09
  -0.2500  0.3333  0.0000    1  5.84132E-10 kpt; spin; max resid(k); each band:
  2.23E-12 1.73E-12 3.41E-12 2.57E-12 6.59E-14 1.15E-12 2.16E-12 2.80E-12
  4.11E-12 5.84E-10
  -0.3333  0.4167  0.0000    1  1.15522E-09 kpt; spin; max resid(k); each band:
  3.32E-12 2.12E-12 1.87E-12 2.73E-12 2.00E-12 1.40E-14 1.47E-12 2.64E-12
  2.78E-12 1.16E-09
  -0.4167  0.5000  0.0000    1  1.71575E-11 kpt; spin; max resid(k); each band:
  3.74E-12 5.41E-13 6.70E-13 2.50E-12 1.82E-12 2.27E-12 1.48E-12 3.07E-12
  2.52E-12 1.72E-11
  -0.3333  0.5000  0.0833    1  7.89408E-10 kpt; spin; max resid(k); each band:
  3.60E-12 1.38E-12 1.88E-12 2.65E-12 2.83E-12 7.18E-13 1.40E-12 2.67E-12
  2.81E-12 7.89E-10
  -0.2500  0.5000  0.1667    1  1.54410E-06 kpt; spin; max resid(k); each band:
  3.04E-12 2.12E-12 2.09E-12 2.41E-12 2.00E-12 2.12E-12 1.74E-12 2.48E-12
  2.73E-12 1.54E-06
  -0.0833  0.0000  0.0000    1  5.66267E-11 kpt; spin; max resid(k); each band:
  2.95E-12 8.47E-13 1.12E-12 1.11E-12 2.16E-13 2.13E-13 9.21E-13 1.21E-12
  1.25E-12 5.66E-11
  -0.2500  0.0000  0.0000    1  1.88992E-10 kpt; spin; max resid(k); each band:
  1.22E-12 3.16E-12 2.99E-12 2.97E-12 9.12E-14 9.24E-14 3.40E-12 3.26E-12
  3.11E-12 1.89E-10
  -0.4167  0.0000  0.0000    1  1.06225E-08 kpt; spin; max resid(k); each band:
  1.23E-12 2.18E-12 3.82E-12 3.84E-12 1.33E-13 1.24E-13 2.22E-12 9.69E-11
  8.56E-09 1.06E-08
 reduced coordinates (array xred) for    2 atoms
       0.000000000000      0.000000000000      0.000000000000
       0.500000000000      0.500000000000      0.500000000000
 rms dE/dt=  0.0000E+00; max dE/dt=  0.0000E+00; dE/dt below (all hartree)
    1       0.000000000000      0.000000000000      0.000000000000
    2       0.000000000000      0.000000000000      0.000000000000

 cartesian coordinates (angstrom) at end:
    1      0.00000000000000     0.00000000000000     0.00000000000000
    2      1.98800000000000     1.98800000000000     1.98800000000000

 cartesian forces (hartree/bohr) at end:
    1     -0.00000000000000    -0.00000000000000    -0.00000000000000
    2     -0.00000000000000    -0.00000000000000    -0.00000000000000
 frms,max,avg= 0.0000000E+00 0.0000000E+00   0.000E+00  0.000E+00  0.000E+00 h/b

 cartesian forces (eV/Angstrom) at end:
    1     -0.00000000000000    -0.00000000000000    -0.00000000000000
    2     -0.00000000000000    -0.00000000000000    -0.00000000000000
 frms,max,avg= 0.0000000E+00 0.0000000E+00   0.000E+00  0.000E+00  0.000E+00 e/A
 length scales=  7.513551104353  7.513551104353  7.513551104353 bohr
              =  3.976000000000  3.976000000000  3.976000000000 angstroms
 prteigrs : about to open file agcl.o_DS1_EIG
 Fermi (or HOMO) energy (hartree) =   0.38054   Average Vxc (hartree)=  -0.62406
 Eigenvalues (hartree) for nkpt=  28  k points:
 kpt#   1, nband= 10, wtk=  0.02778, kpt= -0.0833 -0.1667  0.0000 (reduced coord)
  -0.62863  -0.17436  -0.14198  -0.13248  -0.10568  -0.08842   0.09001   0.12842
   0.17862   0.58242
 kpt#   2, nband= 10, wtk=  0.02778, kpt= -0.0833 -0.3333  0.0000 (reduced coord)
  -0.56456  -0.25399  -0.21011  -0.19710  -0.06099  -0.03683   0.07016   0.23928
   0.31934   0.45414
 kpt#   3, nband= 10, wtk=  0.02778, kpt= -0.1667 -0.2500  0.0000 (reduced coord)
  -0.59857  -0.23204  -0.16050  -0.13421  -0.10249  -0.06897   0.10485   0.13690
   0.23372   0.59208
 kpt#   4, nband= 10, wtk=  0.05556, kpt= -0.0833 -0.2500  0.0833 (reduced coord)
  -0.58151  -0.23946  -0.18892  -0.17697  -0.07990  -0.04387   0.09222   0.15815
   0.30116   0.51778
 kpt#   5, nband= 10, wtk=  0.02778, kpt= -0.0833  0.5000  0.0000 (reduced coord)
  -0.49541  -0.33271  -0.23744  -0.23396  -0.01320  -0.00571   0.07797   0.32286
   0.35308   0.40146
 kpt#   6, nband= 10, wtk=  0.02778, kpt= -0.1667 -0.4167  0.0000 (reduced coord)
  -0.53693  -0.28303  -0.21802  -0.19543  -0.05556  -0.01171   0.07482   0.21708
   0.31275   0.49160
 kpt#   7, nband= 10, wtk=  0.05556, kpt= -0.0833 -0.4167  0.0833 (reduced coord)
  -0.51391  -0.30674  -0.23052  -0.21921  -0.02980  -0.00522   0.07347   0.25343
   0.33677   0.43245
 kpt#   8, nband= 10, wtk=  0.02778, kpt= -0.2500 -0.3333  0.0000 (reduced coord)
  -0.56829  -0.26210  -0.17881  -0.12640  -0.09080  -0.04825   0.10131   0.12417
   0.26350   0.47386
 kpt#   9, nband= 10, wtk=  0.05556, kpt= -0.1667 -0.3333  0.0833 (reduced coord)
  -0.55252  -0.26933  -0.19787  -0.17749  -0.06837  -0.01867   0.09153   0.14514
   0.30413   0.49851
 kpt#  10, nband= 10, wtk=  0.05556, kpt= -0.0833 -0.3333  0.1667 (reduced coord)
  -0.52845  -0.28536  -0.21957  -0.20866  -0.04272   0.00123   0.08891   0.15387
   0.34019   0.47592
 kpt#  11, nband= 10, wtk=  0.02778, kpt= -0.0833  0.3333  0.0000 (reduced coord)
  -0.53688  -0.28483  -0.22763  -0.21546  -0.03934  -0.02105   0.07269   0.26745
   0.38054   0.39901
 kpt#  12, nband= 10, wtk=  0.02778, kpt= -0.1667  0.4167  0.0000 (reduced coord)
  -0.50210  -0.31553  -0.22821  -0.22735  -0.01230  -0.00822   0.06989   0.25005
   0.33256   0.40132
 kpt#  13, nband= 10, wtk=  0.02778, kpt= -0.2500  0.5000  0.0000 (reduced coord)
  -0.52567  -0.27380  -0.22048  -0.18721  -0.04394   0.00196   0.06128   0.18778
   0.23753   0.46238
 kpt#  14, nband= 10, wtk=  0.05556, kpt= -0.1667  0.5000  0.0833 (reduced coord)
  -0.51028  -0.29484  -0.22637  -0.21264  -0.01959  -0.00246   0.06219   0.23222
   0.24516   0.45579
 kpt#  15, nband= 10, wtk=  0.02778, kpt= -0.3333 -0.4167  0.0000 (reduced coord)
  -0.55187  -0.25140  -0.19377  -0.11185  -0.06717  -0.02532   0.07158   0.08813
   0.23346   0.39605
 kpt#  16, nband= 10, wtk=  0.05556, kpt= -0.2500 -0.4167  0.0833 (reduced coord)
  -0.53849  -0.25842  -0.20688  -0.16796  -0.04829   0.00292   0.06789   0.11447
   0.23686   0.45713
 kpt#  17, nband= 10, wtk=  0.05556, kpt= -0.1667 -0.4167  0.1667 (reduced coord)
  -0.52090  -0.27151  -0.21819  -0.20492  -0.02364   0.01071   0.06841   0.13435
   0.23909   0.52338
 kpt#  18, nband= 10, wtk=  0.05556, kpt= -0.0833 -0.4167  0.2500 (reduced coord)
  -0.51578  -0.27185  -0.22156  -0.20540  -0.00905  -0.00480   0.06796   0.14478
   0.22534   0.48881
 kpt#  19, nband= 10, wtk=  0.02778, kpt= -0.0833  0.1667  0.0000 (reduced coord)
  -0.61111  -0.18507  -0.18060  -0.16100  -0.09024  -0.06999   0.08215   0.15122
   0.24085   0.54760
 kpt#  20, nband= 10, wtk=  0.02778, kpt= -0.1667  0.2500  0.0000 (reduced coord)
  -0.55338  -0.26288  -0.21981  -0.19805  -0.05900  -0.01800   0.09412   0.16442
   0.37605   0.45372
 kpt#  21, nband= 10, wtk=  0.02778, kpt= -0.2500  0.3333  0.0000 (reduced coord)
  -0.51281  -0.29377  -0.22022  -0.21874  -0.02356   0.00248   0.08299   0.15030
   0.32378   0.43858
 kpt#  22, nband= 10, wtk=  0.02778, kpt= -0.3333  0.4167  0.0000 (reduced coord)
  -0.52637  -0.24817  -0.22048  -0.17911  -0.03252   0.00471   0.05757   0.15219
   0.16979   0.46945
 kpt#  23, nband= 10, wtk=  0.02778, kpt= -0.4167  0.5000  0.0000 (reduced coord)
  -0.54858  -0.22066  -0.20229  -0.09930  -0.03814   0.00379   0.03536   0.04331
   0.16495   0.39160
 kpt#  24, nband= 10, wtk=  0.05556, kpt= -0.3333  0.5000  0.0833 (reduced coord)
  -0.53707  -0.22670  -0.21290  -0.16107  -0.02246   0.01780   0.04184   0.08761
   0.15765   0.45724
 kpt#  25, nband= 10, wtk=  0.05556, kpt= -0.2500  0.5000  0.1667 (reduced coord)
  -0.52374  -0.23920  -0.22023  -0.20156   0.00093   0.02105   0.04612   0.12253
   0.14538   0.55723
 kpt#  26, nband= 10, wtk=  0.00926, kpt= -0.0833  0.0000  0.0000 (reduced coord)
  -0.64631  -0.12589  -0.12257  -0.12257  -0.10625  -0.10625   0.08410   0.11699
   0.11699   0.54728
 kpt#  27, nband= 10, wtk=  0.00926, kpt= -0.2500  0.0000  0.0000 (reduced coord)
  -0.59374  -0.20777  -0.19050  -0.19050  -0.06684  -0.06684   0.06206   0.24388
   0.24388   0.48783
 kpt#  28, nband= 10, wtk=  0.00926, kpt= -0.4167  0.0000  0.0000 (reduced coord)
  -0.51124  -0.31715  -0.23420  -0.23420  -0.01616  -0.01616   0.07611   0.34770
   0.37633   0.37633
 Total charge density [el/Bohr^3]
,     Maximum=    7.0010E-01  at reduced coord.    0.1333    0.8667    0.9000
,Next maximum=    7.0010E-01  at reduced coord.    0.1000    0.8667    0.9000
,     Minimum=    1.0828E-03  at reduced coord.    0.0000    0.0000    0.0000
,Next minimum=    8.7446E-03  at reduced coord.    0.0333    0.0000    0.0000
,  Integrated=    1.8000E+01

--------------------------------------------------------------------------------
 Components of total free energy (in Hartree) :

    Kinetic energy  =  3.75509051578084E+01
    Hartree energy  =  3.98294774412642E+00
    XC energy       = -2.06152476285111E+01
    Ewald energy    = -6.30358004963207E+01
    PspCore energy  =  1.49657884075716E+01
    Loc. psp. energy= -7.70561932637023E-01
    NL   psp  energy= -3.20330648931506E+01
    >>>>>>>>> Etotal= -5.99550336411129E+01

 Other information on the energy :
    Total energy(eV)= -1.63145943474754E+03 ; Band energy (Ha)=  -1.5101854381E+00
--------------------------------------------------------------------------------

 Cartesian components of stress tensor (hartree/bohr^3)
  sigma(1 1)= -2.22598704E-02  sigma(3 2)=  0.00000000E+00
  sigma(2 2)= -2.22598704E-02  sigma(3 1)=  0.00000000E+00
  sigma(3 3)= -2.22598704E-02  sigma(2 1)=  0.00000000E+00

-Cartesian components of stress tensor (GPa)         [Pressure=  6.5491E+02 GPa]
- sigma(1 1)= -6.54907889E+02  sigma(3 2)=  0.00000000E+00
- sigma(2 2)= -6.54907889E+02  sigma(3 1)=  0.00000000E+00
- sigma(3 3)= -6.54907889E+02  sigma(2 1)=  0.00000000E+00

================================================================================
== DATASET  2 ==================================================================
-   nproc =    1

 mkfilename : getden/=0, take file _DEN from output of DATASET   1.

 Exchange-correlation functional for the present dataset will be:
  LDA: new Teter (4/93) with spin-polarized option - ixc=1
 Citation for XC functional:
  S. Goedecker, M. Teter, J. Huetter, PRB 54, 1703 (1996)

 Real(R)+Recip(G) space primitive vectors, cartesian coordinates (Bohr,Bohr^-1):
 R(1)=  0.0000000  3.7567756  3.7567756  G(1)= -0.1330929  0.1330929  0.1330929
 R(2)=  3.7567756  0.0000000  3.7567756  G(2)=  0.1330929 -0.1330929  0.1330929
 R(3)=  3.7567756  3.7567756  0.0000000  G(3)=  0.1330929  0.1330929 -0.1330929
 Unit cell volume ucvol=  1.0604147E+02 bohr^3
 Angles (23,13,12)=  6.00000000E+01  6.00000000E+01  6.00000000E+01 degrees

 getcut: wavevector=  0.0000  0.0000  0.0000  ngfft=  30  30  30
         ecut(hartree)=     30.000   => boxcut(ratio)=   2.29270

 getcut : COMMENT -
  Note that boxcut > 2.2 ; recall that boxcut=Gcut(box)/Gcut(sphere) = 2
  is sufficient for exact treatment of convolution.
  Such a large boxcut is a waste : you could raise ecut
  e.g. ecut=   39.423557 Hartrees makes boxcut=2

--------------------------------------------------------------------------------

P newkpt: treating     13 bands with npw=     416 for ikpt=   1 by node    0
P newkpt: treating     13 bands with npw=     835 for ikpt=   2 by node    0
P newkpt: treating     13 bands with npw=     826 for ikpt=   3 by node    0
P newkpt: treating     13 bands with npw=     838 for ikpt=   4 by node    0
P newkpt: treating     13 bands with npw=     833 for ikpt=   5 by node    0
P newkpt: treating     13 bands with npw=     839 for ikpt=   6 by node    0
P newkpt: treating     13 bands with npw=     833 for ikpt=   7 by node    0
P newkpt: treating     13 bands with npw=     848 for ikpt=   8 by node    0
P newkpt: treating     13 bands with npw=     854 for ikpt=   9 by node    0
P newkpt: treating     13 bands with npw=     869 for ikpt=  10 by node    0
P newkpt: treating     13 bands with npw=     435 for ikpt=  11 by node    0
P newkpt: treating     13 bands with npw=     869 for ikpt=  12 by node    0
P newkpt: treating     13 bands with npw=     857 for ikpt=  13 by node    0
P newkpt: treating     13 bands with npw=     849 for ikpt=  14 by node    0
P newkpt: treating     13 bands with npw=     853 for ikpt=  15 by node    0
P newkpt: treating     13 bands with npw=     841 for ikpt=  16 by node    0
P newkpt: treating     13 bands with npw=     833 for ikpt=  17 by node    0
P newkpt: treating     13 bands with npw=     833 for ikpt=  18 by node    0
P newkpt: treating     13 bands with npw=     837 for ikpt=  19 by node    0
P newkpt: treating     13 bands with npw=     826 for ikpt=  20 by node    0
P newkpt: treating     13 bands with npw=     818 for ikpt=  21 by node    0
P newkpt: treating     13 bands with npw=     818 for ikpt=  22 by node    0
P newkpt: treating     13 bands with npw=     403 for ikpt=  23 by node    0
P newkpt: treating     13 bands with npw=     824 for ikpt=  24 by node    0
P newkpt: treating     13 bands with npw=     820 for ikpt=  25 by node    0
P newkpt: treating     13 bands with npw=     824 for ikpt=  26 by node    0
P newkpt: treating     13 bands with npw=     824 for ikpt=  27 by node    0
P newkpt: treating     13 bands with npw=     822 for ikpt=  28 by node    0
P newkpt: treating     13 bands with npw=     820 for ikpt=  29 by node    0
P newkpt: treating     13 bands with npw=     830 for ikpt=  30 by node    0
P newkpt: treating     13 bands with npw=     837 for ikpt=  31 by node    0
P newkpt: treating     13 bands with npw=     835 for ikpt=  32 by node    0
P newkpt: treating     13 bands with npw=     831 for ikpt=  33 by node    0
P newkpt: treating     13 bands with npw=     837 for ikpt=  34 by node    0
P newkpt: treating     13 bands with npw=     841 for ikpt=  35 by node    0
P newkpt: treating     13 bands with npw=     839 for ikpt=  36 by node    0
P newkpt: treating     13 bands with npw=     839 for ikpt=  37 by node    0
P newkpt: treating     13 bands with npw=     863 for ikpt=  38 by node    0
P newkpt: treating     13 bands with npw=     869 for ikpt=  39 by node    0
P newkpt: treating     13 bands with npw=     869 for ikpt=  40 by node    0


================================================================================
 prteigrs : about to open file agcl.o_DS2_EIG
 Non-SCF case, kpt    1 (  0.50000  0.00000  0.00000), residuals and eigenvalues=
  4.00E-13  3.61E-13  7.65E-13  4.31E-13  5.96E-13  3.59E-13  6.38E-13  7.42E-13
  7.60E-13  1.19E-13  7.51E-13  1.00E-12  5.35E-10
 -4.8937E-01 -3.4274E-01 -2.3992E-01 -2.3992E-01 -6.8728E-03 -6.8728E-03
  8.2287E-02  3.2399E-01  4.1033E-01  4.1033E-01  4.8266E-01  4.8266E-01
  8.0921E-01
  prteigrs : nnsclo,ikpt=   40    1 max resid (incl. the buffer)=  5.34818E-10
 Non-SCF case, kpt    2 (  0.45000  0.00000  0.00000), residuals and eigenvalues=
  8.81E-13  5.80E-13  6.95E-13  9.34E-13  6.49E-13  7.70E-13  2.14E-13  6.06E-13
  9.17E-13  4.97E-13  2.71E-13  4.09E-12  1.04E-08
 -4.9811E-01 -3.3265E-01 -2.3786E-01 -2.3786E-01 -1.0325E-02 -1.0325E-02
  7.9844E-02  3.3278E-01  3.9584E-01  3.9584E-01  4.9740E-01  4.9740E-01
  8.1251E-01
  prteigrs : nnsclo,ikpt=   40    2 max resid (incl. the buffer)=  1.04018E-08
 Non-SCF case, kpt    3 (  0.40000  0.00000  0.00000), residuals and eigenvalues=
  4.54E-13  3.82E-13  9.43E-13  4.45E-13  2.99E-13  6.52E-13  7.18E-13  4.38E-13
  2.49E-13  8.20E-13  9.81E-13  3.40E-12  2.77E-07
 -5.1901E-01 -3.0775E-01 -2.3170E-01 -2.3170E-01 -1.9964E-02 -1.9964E-02
  7.3939E-02  3.5748E-01  3.6511E-01  3.6511E-01  5.2909E-01  5.2909E-01
  8.2168E-01
  prteigrs : nnsclo,ikpt=   40    3 max resid (incl. the buffer)=  2.76842E-07
 Non-SCF case, kpt    4 (  0.35000  0.00000  0.00000), residuals and eigenvalues=
  4.00E-13  6.29E-13  2.38E-13  8.05E-13  2.27E-13  6.65E-13  6.23E-13  2.27E-13
  2.78E-13  5.87E-13  7.83E-13  1.16E-12  5.26E-06
 -5.4442E-01 -2.7585E-01 -2.2158E-01 -2.2158E-01 -3.4001E-02 -3.4001E-02
  6.7488E-02  3.2769E-01  3.2769E-01  3.9429E-01  5.6842E-01  5.6842E-01
  8.2266E-01
  prteigrs : nnsclo,ikpt=   40    4 max resid (incl. the buffer)=  5.25638E-06
 Non-SCF case, kpt    5 (  0.30000  0.00000  0.00000), residuals and eigenvalues=
  5.43E-13  3.64E-13  4.70E-13  2.26E-13  9.53E-13  7.18E-13  6.87E-13  1.49E-13
  1.65E-13  2.95E-13  9.32E-13  6.04E-13  1.22E-07
 -5.7003E-01 -2.4159E-01 -2.0772E-01 -2.0772E-01 -5.0280E-02 -5.0280E-02
  6.3020E-02  2.8662E-01  2.8662E-01  4.3916E-01  6.1226E-01  6.1226E-01
  7.6588E-01
  prteigrs : nnsclo,ikpt=   40    5 max resid (incl. the buffer)=  1.21913E-07
 Non-SCF case, kpt    6 (  0.25000  0.00000  0.00000), residuals and eigenvalues=
  7.96E-13  3.08E-13  3.30E-13  5.00E-13  2.86E-13  3.31E-13  8.97E-13  4.33E-13
  2.06E-13  8.28E-13  4.74E-13  6.20E-13  3.39E-12
 -5.9374E-01 -2.0777E-01 -1.9049E-01 -1.9049E-01 -6.6837E-02 -6.6837E-02
  6.2060E-02  2.4388E-01  2.4388E-01  4.8783E-01  6.5748E-01  6.5748E-01
  7.1277E-01
  prteigrs : nnsclo,ikpt=   40    6 max resid (incl. the buffer)=  3.39028E-12
 Non-SCF case, kpt    7 (  0.20000  0.00000  0.00000), residuals and eigenvalues=
  1.55E-13  6.98E-13  7.67E-13  3.43E-13  4.51E-13  2.83E-13  6.53E-13  5.00E-13
  2.06E-13  3.37E-13  5.21E-13  8.27E-13  1.14E-11
 -6.1432E-01 -1.7668E-01 -1.7056E-01 -1.7056E-01 -8.2102E-02 -8.2102E-02
  6.5235E-02  2.0144E-01  2.0144E-01  5.3408E-01  6.6744E-01  6.9985E-01
  6.9985E-01
  prteigrs : nnsclo,ikpt=   40    7 max resid (incl. the buffer)=  1.13606E-11
 Non-SCF case, kpt    8 (  0.15000  0.00000  0.00000), residuals and eigenvalues=
  5.66E-13  3.00E-13  6.44E-13  5.15E-13  4.54E-13  4.13E-13  5.35E-13  4.12E-13
  3.71E-13  2.88E-13  7.96E-13  7.73E-12  1.39E-07
 -6.3101E-01 -1.5043E-01 -1.4911E-01 -1.4911E-01 -9.4897E-02 -9.4897E-02
  7.2174E-02  1.6142E-01  1.6142E-01  5.6218E-01  6.4218E-01  7.3443E-01
  7.3443E-01
  prteigrs : nnsclo,ikpt=   40    8 max resid (incl. the buffer)=  1.39254E-07
 Non-SCF case, kpt    9 (  0.10000  0.00000  0.00000), residuals and eigenvalues=
  2.19E-13  8.18E-13  9.22E-13  3.66E-13  5.46E-13  5.37E-13  9.74E-13  1.72E-13
  6.57E-13  5.33E-13  4.80E-13  6.97E-13  9.18E-05
 -6.4327E-01 -1.3077E-01 -1.2846E-01 -1.2846E-01 -1.0421E-01 -1.0421E-01
  8.1164E-02  1.2669E-01  1.2669E-01  5.5363E-01  6.5058E-01  7.5808E-01
  7.5850E-01
  prteigrs : nnsclo,ikpt=   40    9 max resid (incl. the buffer)=  9.18271E-05
 Non-SCF case, kpt   10 (  0.05000  0.00000  0.00000), residuals and eigenvalues=
  6.95E-13  3.77E-13  8.48E-13  3.57E-13  3.14E-13  2.69E-13  4.60E-13  9.15E-13
  5.34E-13  4.32E-13  6.27E-13  9.32E-13  2.83E-05
 -6.5077E-01 -1.1874E-01 -1.1519E-01 -1.1519E-01 -1.0684E-01 -1.0684E-01
  8.9016E-02  1.0164E-01  1.0164E-01  5.3608E-01  6.6219E-01  7.7105E-01
  7.7369E-01
  prteigrs : nnsclo,ikpt=   40   10 max resid (incl. the buffer)=  2.83099E-05
 Non-SCF case, kpt   11 (  0.00000  0.00000  0.00000), residuals and eigenvalues=
  3.36E-13  8.41E-13  7.98E-13  4.92E-13  2.98E-13  3.40E-13  6.88E-13  6.43E-13
  8.62E-13  6.93E-13  8.45E-13  9.15E-13  5.01E-13
 -6.5329E-01 -1.1471E-01 -1.1471E-01 -1.1471E-01 -1.0272E-01 -1.0272E-01
  9.2175E-02  9.2175E-02  9.2175E-02  5.2891E-01  6.6509E-01  7.7510E-01
  7.7510E-01
 Non-SCF case, kpt   12 (  0.00000  0.04167  0.04167), residuals and eigenvalues=
  1.74E-13  5.36E-13  7.83E-13  2.41E-13  3.33E-13  6.28E-13  8.36E-13  3.07E-13
  3.98E-13  3.49E-13  7.41E-13  4.62E-13  3.71E-04
 -6.5096E-01 -1.1646E-01 -1.1495E-01 -1.1495E-01 -1.1337E-01 -1.0199E-01
  9.4445E-02  9.4445E-02  1.0199E-01  5.3578E-01  6.6305E-01  7.6681E-01
  7.7709E-01
  prteigrs : nnsclo,ikpt=   40   12 max resid (incl. the buffer)=  3.71024E-04
 Non-SCF case, kpt   13 (  0.00000  0.08333  0.08333), residuals and eigenvalues=
  4.41E-13  4.48E-13  8.34E-13  7.18E-13  2.04E-13  2.68E-13  5.07E-13  3.30E-13
  3.81E-13  8.40E-13  8.00E-13  2.15E-11  1.19E-06
 -6.4413E-01 -1.3940E-01 -1.2151E-01 -1.1540E-01 -1.1540E-01 -9.9811E-02
  1.0062E-01  1.0062E-01  1.2570E-01  5.5609E-01  6.5858E-01  7.4584E-01
  7.4584E-01
  prteigrs : nnsclo,ikpt=   40   13 max resid (incl. the buffer)=  1.19148E-06
 Non-SCF case, kpt   14 (  0.00000  0.12500  0.12500), residuals and eigenvalues=
  8.29E-13  5.83E-13  8.61E-13  2.38E-13  3.36E-13  4.38E-13  4.78E-13  7.70E-13
  8.58E-13  9.58E-13  5.68E-13  1.15E-11  5.80E-09
 -6.3324E-01 -1.7137E-01 -1.2932E-01 -1.1537E-01 -1.1537E-01 -9.6318E-02
  1.0892E-01  1.0892E-01  1.5451E-01  5.8868E-01  6.5414E-01  7.2019E-01
  7.2019E-01
  prteigrs : nnsclo,ikpt=   40   14 max resid (incl. the buffer)=  5.80368E-09
 Non-SCF case, kpt   15 (  0.00000  0.16667  0.16667), residuals and eigenvalues=
  1.59E-13  4.21E-13  3.73E-13  7.14E-13  6.49E-13  3.81E-13  6.19E-13  4.48E-13
  6.01E-13  7.02E-13  7.91E-13  3.44E-13  8.57E-08
 -6.1914E-01 -2.0296E-01 -1.3912E-01 -1.1403E-01 -1.1403E-01 -9.1704E-02
  1.1677E-01  1.1677E-01  1.8334E-01  6.3137E-01  6.5095E-01  6.9721E-01
  6.9721E-01
  prteigrs : nnsclo,ikpt=   40   15 max resid (incl. the buffer)=  8.57081E-08
 Non-SCF case, kpt   16 (  0.00000  0.20833  0.20833), residuals and eigenvalues=
  2.04E-13  6.19E-13  3.27E-13  7.51E-13  8.58E-13  4.27E-13  2.15E-13  5.27E-13
  6.94E-13  9.19E-13  7.56E-13  1.05E-08  2.88E-13
 -6.0308E-01 -2.3019E-01 -1.5002E-01 -1.1065E-01 -1.1065E-01 -8.6240E-02
  1.2126E-01  1.2126E-01  2.0984E-01  6.3008E-01  6.4921E-01  6.8168E-01
  6.8250E-01
  prteigrs : nnsclo,ikpt=   40   16 max resid (incl. the buffer)=  1.05161E-08
 Non-SCF case, kpt   17 (  0.00000  0.25000  0.25000), residuals and eigenvalues=
  3.37E-13  1.90E-13  3.65E-13  5.50E-13  6.54E-13  4.89E-13  7.59E-13  2.86E-13
  2.39E-13  8.71E-13  5.81E-13  6.47E-13  2.10E-10
 -5.8685E-01 -2.5011E-01 -1.6119E-01 -1.0468E-01 -1.0468E-01 -8.0262E-02
  1.1994E-01  1.1994E-01  2.3246E-01  5.4503E-01  6.4869E-01  6.7989E-01
  6.7989E-01
  prteigrs : nnsclo,ikpt=   40   17 max resid (incl. the buffer)=  2.09545E-10
 Non-SCF case, kpt   18 (  0.00000  0.29167  0.29167), residuals and eigenvalues=
  6.75E-13  6.64E-13  7.55E-13  5.31E-13  3.24E-13  5.84E-13  3.45E-13  2.46E-13
  5.18E-13  8.94E-13  3.54E-13  8.09E-13  3.14E-12
 -5.7254E-01 -2.6040E-01 -1.7186E-01 -9.5803E-02 -9.5803E-02 -7.4159E-02
  1.1156E-01  1.1156E-01  2.4847E-01  4.6910E-01  6.4903E-01  6.9114E-01
  6.9114E-01
  prteigrs : nnsclo,ikpt=   40   18 max resid (incl. the buffer)=  3.13708E-12
 Non-SCF case, kpt   19 (  0.00000  0.33333  0.33333), residuals and eigenvalues=
  4.92E-13  5.59E-13  8.64E-13  9.97E-13  7.04E-13  1.86E-13  9.44E-13  9.70E-13
  3.13E-13  7.20E-13  4.80E-13  6.26E-13  3.22E-11
 -5.6193E-01 -2.5993E-01 -1.8141E-01 -8.3918E-02 -8.3918E-02 -6.8356E-02
  9.6575E-02  9.6575E-02  2.5130E-01  4.1033E-01  6.4987E-01  7.1573E-01
  7.1573E-01
  prteigrs : nnsclo,ikpt=   40   19 max resid (incl. the buffer)=  3.22037E-11
 Non-SCF case, kpt   20 (  0.00000  0.37500  0.37500), residuals and eigenvalues=
  7.61E-13  5.79E-13  8.00E-13  4.08E-13  7.69E-13  9.42E-13  2.28E-13  6.00E-13
  1.72E-13  6.73E-13  7.02E-13  2.78E-13  2.73E-11
 -5.5560E-01 -2.4975E-01 -1.8933E-01 -6.9192E-02 -6.9192E-02 -6.3276E-02
  7.6735E-02  7.6735E-02  2.3182E-01  3.7954E-01  6.5090E-01  7.5119E-01
  7.5119E-01
  prteigrs : nnsclo,ikpt=   40   20 max resid (incl. the buffer)=  2.72504E-11
 Non-SCF case, kpt   21 (  0.00000  0.41667  0.41667), residuals and eigenvalues=
  2.60E-13  5.38E-13  4.22E-13  8.57E-13  2.70E-13  7.27E-13  5.13E-13  4.31E-13
  6.38E-13  8.28E-13  9.92E-13  1.07E-11  1.05E-07
 -5.5276E-01 -2.3392E-01 -1.9523E-01 -5.9317E-02 -5.2257E-02 -5.2257E-02
  5.4557E-02  5.4557E-02  1.9707E-01  3.7241E-01  6.5183E-01  7.9292E-01
  7.9292E-01
  prteigrs : nnsclo,ikpt=   40   21 max resid (incl. the buffer)=  1.04521E-07
 Non-SCF case, kpt   22 (  0.00000  0.45833  0.45833), residuals and eigenvalues=
  3.45E-13  3.55E-13  4.96E-13  9.21E-13  8.59E-13  5.81E-13  5.26E-13  7.39E-13
  5.88E-13  6.52E-13  8.72E-13  5.51E-12  3.95E-08
 -5.5189E-01 -2.1918E-01 -1.9888E-01 -5.6799E-02 -3.5148E-02 -3.5148E-02
  3.3644E-02  3.3644E-02  1.6694E-01  3.7346E-01  6.5247E-01  8.3210E-01
  8.3210E-01
  prteigrs : nnsclo,ikpt=   40   22 max resid (incl. the buffer)=  3.94864E-08
 Non-SCF case, kpt   23 (  0.00000  0.50000  0.50000), residuals and eigenvalues=
  3.02E-13  3.95E-13  5.93E-13  9.38E-13  2.92E-13  4.24E-13  2.77E-13  2.91E-13
  3.71E-13  6.24E-13  4.85E-13  4.20E-13  5.53E-05
 -5.5175E-01 -2.1306E-01 -2.0011E-01 -5.5926E-02 -2.5846E-02 -2.5846E-02
  2.2966E-02  2.2966E-02  1.5524E-01  3.7452E-01  6.5270E-01  8.5034E-01
  8.5046E-01
  prteigrs : nnsclo,ikpt=   40   23 max resid (incl. the buffer)=  5.53211E-05
 Non-SCF case, kpt   24 (  0.05882  0.52941  0.52941), residuals and eigenvalues=
  2.38E-13  5.66E-13  5.10E-13  3.04E-13  3.85E-13  1.99E-13  5.22E-13  2.81E-13
  8.61E-13  3.37E-13  2.26E-13  1.60E-08  2.34E-07
 -5.5012E-01 -2.1373E-01 -2.0172E-01 -8.2955E-02 -2.8982E-02  5.2116E-03
  2.1939E-02  2.5476E-02  1.5400E-01  3.8377E-01  6.4862E-01  8.0861E-01
  8.4460E-01
  prteigrs : nnsclo,ikpt=   40   24 max resid (incl. the buffer)=  2.33785E-07
 Non-SCF case, kpt   25 (  0.11765  0.55882  0.55882), residuals and eigenvalues=
  3.48E-13  5.74E-13  3.09E-13  5.59E-13  4.62E-13  3.33E-13  8.56E-13  4.26E-13
  5.25E-13  3.38E-13  8.35E-13  4.68E-11  5.20E-09
 -5.4537E-01 -2.1552E-01 -2.0760E-01 -1.1674E-01 -3.5291E-02  1.8873E-02
  3.2738E-02  5.1062E-02  1.5035E-01  4.0863E-01  6.3770E-01  7.5914E-01
  8.2967E-01
  prteigrs : nnsclo,ikpt=   40   25 max resid (incl. the buffer)=  5.19799E-09
 Non-SCF case, kpt   26 (  0.17647  0.58824  0.58824), residuals and eigenvalues=
  5.37E-13  3.03E-13  4.16E-13  7.69E-13  9.71E-13  3.41E-13  6.37E-13  4.38E-13
  6.11E-13  4.80E-13  7.57E-13  6.39E-11  1.56E-08
 -5.3804E-01 -2.1972E-01 -2.1783E-01 -1.4677E-01 -3.8319E-02  1.3781E-02
  4.3993E-02  1.0101E-01  1.4446E-01  4.4109E-01  6.2469E-01  7.1279E-01
  8.1010E-01
  prteigrs : nnsclo,ikpt=   40   26 max resid (incl. the buffer)=  1.55573E-08
 Non-SCF case, kpt   27 (  0.23529  0.61765  0.61765), residuals and eigenvalues=
  4.90E-13  3.14E-13  9.48E-13  6.30E-13  6.62E-13  6.15E-13  3.42E-13  4.14E-13
  8.89E-13  9.22E-13  4.26E-13  1.59E-11  1.37E-07
 -5.2913E-01 -2.3817E-01 -2.1990E-01 -1.7221E-01 -3.3763E-02  6.7242E-03
  5.8176E-02  1.3673E-01  1.5391E-01  4.6783E-01  6.2054E-01  6.7064E-01
  7.9002E-01
  prteigrs : nnsclo,ikpt=   40   27 max resid (incl. the buffer)=  1.36526E-07
 Non-SCF case, kpt   28 (  0.29412  0.64706  0.64706), residuals and eigenvalues=
  7.41E-13  3.64E-13  4.26E-13  1.00E-12  6.44E-13  4.13E-13  3.03E-13  6.73E-13
  2.89E-13  9.77E-13  3.65E-13  5.99E-13  6.93E-07
 -5.2034E-01 -2.5960E-01 -2.2097E-01 -1.9274E-01 -2.2129E-02 -2.1671E-03
  7.4053E-02  1.2792E-01  2.0886E-01  4.7379E-01  6.3361E-01  6.3940E-01
  7.7216E-01
  prteigrs : nnsclo,ikpt=   40   28 max resid (incl. the buffer)=  6.92910E-07
 Non-SCF case, kpt   29 (  0.35294  0.67647  0.67647), residuals and eigenvalues=
  2.23E-13  2.71E-13  6.58E-13  4.11E-13  9.89E-13  2.89E-13  4.20E-13  8.43E-13
  9.00E-13  3.13E-13  6.17E-13  1.81E-10  1.92E-06
 -5.1426E-01 -2.7866E-01 -2.2042E-01 -2.0818E-01 -1.2670E-02 -7.5001E-03
  9.0264E-02  1.1955E-01  2.6458E-01  4.6187E-01  6.0263E-01  6.7854E-01
  7.4113E-01
  prteigrs : nnsclo,ikpt=   40   29 max resid (incl. the buffer)=  1.91763E-06
 Non-SCF case, kpt   30 (  0.41176  0.70588  0.70588), residuals and eigenvalues=
  3.76E-13  6.65E-13  8.94E-13  2.94E-13  2.96E-13  8.38E-13  5.29E-13  3.20E-13
  5.95E-13  9.42E-13  9.14E-13  7.52E-08  4.19E-06
 -5.1411E-01 -2.8989E-01 -2.1843E-01 -2.1775E-01 -2.4457E-02  3.9332E-03
  1.0536E-01  1.1411E-01  3.1854E-01  4.4676E-01  5.7877E-01  6.8071E-01
  7.2359E-01
  prteigrs : nnsclo,ikpt=   40   30 max resid (incl. the buffer)=  4.18926E-06
 Non-SCF case, kpt   31 (  0.47059  0.73529  0.73529), residuals and eigenvalues=
  4.16E-13  3.35E-13  4.70E-13  7.39E-13  9.11E-13  7.33E-13  3.18E-13  5.70E-13
  5.85E-13  4.73E-13  4.26E-13  5.35E-13  1.01E-05
 -5.2207E-01 -2.8972E-01 -2.2344E-01 -2.1268E-01 -3.7109E-02  6.0896E-03
  1.1359E-01  1.1787E-01  3.6458E-01  4.3914E-01  5.6313E-01  6.3057E-01
  7.4267E-01
  prteigrs : nnsclo,ikpt=   40   31 max resid (incl. the buffer)=  1.01116E-05
 Non-SCF case, kpt   32 (  0.52941  0.76471  0.76471), residuals and eigenvalues=
  5.00E-13  8.93E-13  1.80E-13  5.96E-13  4.93E-13  7.31E-13  4.79E-13  9.07E-13
  4.73E-13  6.76E-13  8.31E-13  7.07E-12  5.98E-06
 -5.3744E-01 -2.7813E-01 -2.2321E-01 -2.0507E-01 -5.0141E-02 -2.3042E-03
  1.1570E-01  1.2651E-01  3.8773E-01  4.4539E-01  5.5658E-01  6.0618E-01
  7.4102E-01
  prteigrs : nnsclo,ikpt=   40   32 max resid (incl. the buffer)=  5.97686E-06
 Non-SCF case, kpt   33 (  0.58824  0.79412  0.79412), residuals and eigenvalues=
  7.25E-13  2.19E-13  2.63E-13  9.99E-13  6.49E-13  3.71E-13  4.09E-13  6.68E-13
  3.08E-13  9.02E-13  9.83E-13  1.53E-11  1.34E-05
 -5.5734E-01 -2.5778E-01 -2.1783E-01 -1.9497E-01 -6.3046E-02 -1.7790E-02
  1.1591E-01  1.3050E-01  3.7266E-01  4.6752E-01  5.5937E-01  6.2333E-01
  7.4278E-01
  prteigrs : nnsclo,ikpt=   40   33 max resid (incl. the buffer)=  1.33588E-05
 Non-SCF case, kpt   34 (  0.64706  0.82353  0.82353), residuals and eigenvalues=
  2.45E-13  3.14E-13  3.66E-13  6.60E-13  7.25E-13  3.17E-13  7.34E-13  2.68E-13
  7.42E-13  3.84E-13  8.42E-13  8.29E-10  5.50E-04
 -5.7872E-01 -2.3187E-01 -2.0749E-01 -1.8267E-01 -7.5328E-02 -3.6548E-02
  1.1266E-01  1.2979E-01  3.3080E-01  5.0258E-01  5.7084E-01  6.7110E-01
  7.4933E-01
  prteigrs : nnsclo,ikpt=   40   34 max resid (incl. the buffer)=  5.50142E-04
 Non-SCF case, kpt   35 (  0.70588  0.85294  0.85294), residuals and eigenvalues=
  4.29E-13  2.70E-13  8.87E-13  7.34E-13  4.03E-13  8.29E-13  7.42E-13  3.37E-13
  4.47E-13  6.96E-13  7.86E-13  2.71E-05  2.50E-07
 -5.9935E-01 -2.0325E-01 -1.9255E-01 -1.6867E-01 -8.6524E-02 -5.5834E-02
  1.0724E-01  1.2510E-01  2.7958E-01  5.4291E-01  5.8927E-01  7.2957E-01
  7.3260E-01
  prteigrs : nnsclo,ikpt=   40   35 max resid (incl. the buffer)=  2.71099E-05
 Non-SCF case, kpt   36 (  0.76471  0.88235  0.88235), residuals and eigenvalues=
  3.91E-13  5.95E-13  4.22E-13  5.60E-13  4.17E-13  5.47E-13  4.55E-13  6.82E-13
  3.79E-13  9.66E-13  5.67E-13  2.19E-09  9.95E-06
 -6.1772E-01 -1.7449E-01 -1.7359E-01 -1.5379E-01 -9.6233E-02 -7.3704E-02
  1.0152E-01  1.1763E-01  2.2727E-01  5.7318E-01  6.1189E-01  7.0632E-01
  7.5935E-01
  prteigrs : nnsclo,ikpt=   40   36 max resid (incl. the buffer)=  9.94534E-06
 Non-SCF case, kpt   37 (  0.82353  0.91176  0.91176), residuals and eigenvalues=
  4.17E-13  6.54E-13  3.36E-13  4.88E-13  5.29E-13  5.75E-13  2.21E-13  4.23E-13
  6.42E-13  4.51E-13  7.55E-13  1.50E-08  5.14E-06
 -6.3285E-01 -1.5175E-01 -1.4820E-01 -1.3924E-01 -1.0413E-01 -8.8698E-02
  9.6869E-02  1.0887E-01  1.7796E-01  5.7301E-01  6.3479E-01  7.1528E-01
  7.6553E-01
  prteigrs : nnsclo,ikpt=   40   37 max resid (incl. the buffer)=  5.14246E-06
 Non-SCF case, kpt   38 (  0.88235  0.94118  0.94118), residuals and eigenvalues=
  6.37E-13  6.69E-13  8.21E-13  9.88E-13  2.42E-13  9.14E-13  5.72E-13  9.04E-13
  5.67E-13  7.92E-13  9.72E-13  7.26E-08  4.96E-04
 -6.4407E-01 -1.2923E-01 -1.2736E-01 -1.2663E-01 -1.0995E-01 -9.9521E-02
  9.3907E-02  1.0053E-01  1.3519E-01  5.5330E-01  6.5293E-01  7.4335E-01
  7.7683E-01
  prteigrs : nnsclo,ikpt=   40   38 max resid (incl. the buffer)=  4.95659E-04
 Non-SCF case, kpt   39 (  0.94118  0.97059  0.97059), residuals and eigenvalues=
  1.79E-13  8.21E-13  3.29E-13  6.32E-13  5.19E-13  7.07E-13  7.95E-13  4.85E-13
  5.40E-13  5.22E-13  8.60E-13  1.98E-05  1.50E-05
 -6.5096E-01 -1.1787E-01 -1.1608E-01 -1.1351E-01 -1.1049E-01 -1.0384E-01
  9.2527E-02  9.4430E-02  1.0409E-01  5.3560E-01  6.6260E-01  7.6681E-01
  7.7582E-01
  prteigrs : nnsclo,ikpt=   40   39 max resid (incl. the buffer)=  1.97958E-05
 Non-SCF case, kpt   40 (  1.00000  1.00000  1.00000), residuals and eigenvalues=
  9.57E-13  5.08E-13  8.45E-13  4.03E-13  3.42E-13  6.08E-13  3.71E-13  7.52E-13
  5.95E-13  7.62E-13  8.87E-13  8.16E-13  5.76E-13
 -6.5329E-01 -1.1471E-01 -1.1471E-01 -1.1471E-01 -1.0272E-01 -1.0272E-01
  9.2175E-02  9.2175E-02  9.2175E-02  5.2891E-01  6.6509E-01  7.7510E-01
  7.7510E-01
================================================================================

 ----iterations are completed or convergence reached----

 Mean square residual over all n,k,spin=   3.2953E-06; max=  3.7102E-04
   0.5000  0.0000  0.0000    1  5.34818E-10 kpt; spin; max resid(k); each band:
  4.00E-13 3.61E-13 7.65E-13 4.31E-13 5.96E-13 3.59E-13 6.38E-13 7.42E-13
  7.60E-13 1.19E-13 7.51E-13 1.00E-12 5.35E-10
   0.4500  0.0000  0.0000    1  1.04018E-08 kpt; spin; max resid(k); each band:
  8.81E-13 5.80E-13 6.95E-13 9.34E-13 6.49E-13 7.70E-13 2.14E-13 6.06E-13
  9.17E-13 4.97E-13 2.71E-13 4.09E-12 1.04E-08
   0.4000  0.0000  0.0000    1  2.76842E-07 kpt; spin; max resid(k); each band:
  4.54E-13 3.82E-13 9.43E-13 4.45E-13 2.99E-13 6.52E-13 7.18E-13 4.38E-13
  2.49E-13 8.20E-13 9.81E-13 3.40E-12 2.77E-07
   0.3500  0.0000  0.0000    1  5.25638E-06 kpt; spin; max resid(k); each band:
  4.00E-13 6.29E-13 2.38E-13 8.05E-13 2.27E-13 6.65E-13 6.23E-13 2.27E-13
  2.78E-13 5.87E-13 7.83E-13 1.16E-12 5.26E-06
   0.3000  0.0000  0.0000    1  1.21913E-07 kpt; spin; max resid(k); each band:
  5.43E-13 3.64E-13 4.70E-13 2.26E-13 9.53E-13 7.18E-13 6.87E-13 1.49E-13
  1.65E-13 2.95E-13 9.32E-13 6.04E-13 1.22E-07
   0.2500  0.0000  0.0000    1  3.39028E-12 kpt; spin; max resid(k); each band:
  7.96E-13 3.08E-13 3.30E-13 5.00E-13 2.86E-13 3.31E-13 8.97E-13 4.33E-13
  2.06E-13 8.28E-13 4.74E-13 6.20E-13 3.39E-12
   0.2000  0.0000  0.0000    1  1.13606E-11 kpt; spin; max resid(k); each band:
  1.55E-13 6.98E-13 7.67E-13 3.43E-13 4.51E-13 2.83E-13 6.53E-13 5.00E-13
  2.06E-13 3.37E-13 5.21E-13 8.27E-13 1.14E-11
   0.1500  0.0000  0.0000    1  1.39254E-07 kpt; spin; max resid(k); each band:
  5.66E-13 3.00E-13 6.44E-13 5.15E-13 4.54E-13 4.13E-13 5.35E-13 4.12E-13
  3.71E-13 2.88E-13 7.96E-13 7.73E-12 1.39E-07
   0.1000  0.0000  0.0000    1  9.18271E-05 kpt; spin; max resid(k); each band:
  2.19E-13 8.18E-13 9.22E-13 3.66E-13 5.46E-13 5.37E-13 9.74E-13 1.72E-13
  6.57E-13 5.33E-13 4.80E-13 6.97E-13 9.18E-05
   0.0500  0.0000  0.0000    1  2.83099E-05 kpt; spin; max resid(k); each band:
  6.95E-13 3.77E-13 8.48E-13 3.57E-13 3.14E-13 2.69E-13 4.60E-13 9.15E-13
  5.34E-13 4.32E-13 6.27E-13 9.32E-13 2.83E-05
   0.0000  0.0000  0.0000    1  9.14786E-13 kpt; spin; max resid(k); each band:
  3.36E-13 8.41E-13 7.98E-13 4.92E-13 2.98E-13 3.40E-13 6.88E-13 6.43E-13
  8.62E-13 6.93E-13 8.45E-13 9.15E-13 5.01E-13
   0.0000  0.0417  0.0417    1  3.71024E-04 kpt; spin; max resid(k); each band:
  1.74E-13 5.36E-13 7.83E-13 2.41E-13 3.33E-13 6.28E-13 8.36E-13 3.07E-13
  3.98E-13 3.49E-13 7.41E-13 4.62E-13 3.71E-04
   0.0000  0.0833  0.0833    1  1.19148E-06 kpt; spin; max resid(k); each band:
  4.41E-13 4.48E-13 8.34E-13 7.18E-13 2.04E-13 2.68E-13 5.07E-13 3.30E-13
  3.81E-13 8.40E-13 8.00E-13 2.15E-11 1.19E-06
   0.0000  0.1250  0.1250    1  5.80368E-09 kpt; spin; max resid(k); each band:
  8.29E-13 5.83E-13 8.61E-13 2.38E-13 3.36E-13 4.38E-13 4.78E-13 7.70E-13
  8.58E-13 9.58E-13 5.68E-13 1.15E-11 5.80E-09
   0.0000  0.1667  0.1667    1  8.57081E-08 kpt; spin; max resid(k); each band:
  1.59E-13 4.21E-13 3.73E-13 7.14E-13 6.49E-13 3.81E-13 6.19E-13 4.48E-13
  6.01E-13 7.02E-13 7.91E-13 3.44E-13 8.57E-08
   0.0000  0.2083  0.2083    1  1.05161E-08 kpt; spin; max resid(k); each band:
  2.04E-13 6.19E-13 3.27E-13 7.51E-13 8.58E-13 4.27E-13 2.15E-13 5.27E-13
  6.94E-13 9.19E-13 7.56E-13 1.05E-08 2.88E-13
   0.0000  0.2500  0.2500    1  2.09545E-10 kpt; spin; max resid(k); each band:
  3.37E-13 1.90E-13 3.65E-13 5.50E-13 6.54E-13 4.89E-13 7.59E-13 2.86E-13
  2.39E-13 8.71E-13 5.81E-13 6.47E-13 2.10E-10
   0.0000  0.2917  0.2917    1  3.13708E-12 kpt; spin; max resid(k); each band:
  6.75E-13 6.64E-13 7.55E-13 5.31E-13 3.24E-13 5.84E-13 3.45E-13 2.46E-13
  5.18E-13 8.94E-13 3.54E-13 8.09E-13 3.14E-12
   0.0000  0.3333  0.3333    1  3.22037E-11 kpt; spin; max resid(k); each band:
  4.92E-13 5.59E-13 8.64E-13 9.97E-13 7.04E-13 1.86E-13 9.44E-13 9.70E-13
  3.13E-13 7.20E-13 4.80E-13 6.26E-13 3.22E-11
   0.0000  0.3750  0.3750    1  2.72504E-11 kpt; spin; max resid(k); each band:
  7.61E-13 5.79E-13 8.00E-13 4.08E-13 7.69E-13 9.42E-13 2.28E-13 6.00E-13
  1.72E-13 6.73E-13 7.02E-13 2.78E-13 2.73E-11
   0.0000  0.4167  0.4167    1  1.04521E-07 kpt; spin; max resid(k); each band:
  2.60E-13 5.38E-13 4.22E-13 8.57E-13 2.70E-13 7.27E-13 5.13E-13 4.31E-13
  6.38E-13 8.28E-13 9.92E-13 1.07E-11 1.05E-07
   0.0000  0.4583  0.4583    1  3.94864E-08 kpt; spin; max resid(k); each band:
  3.45E-13 3.55E-13 4.96E-13 9.21E-13 8.59E-13 5.81E-13 5.26E-13 7.39E-13
  5.88E-13 6.52E-13 8.72E-13 5.51E-12 3.95E-08
   0.0000  0.5000  0.5000    1  5.53211E-05 kpt; spin; max resid(k); each band:
  3.02E-13 3.95E-13 5.93E-13 9.38E-13 2.92E-13 4.24E-13 2.77E-13 2.91E-13
  3.71E-13 6.24E-13 4.85E-13 4.20E-13 5.53E-05
   0.0588  0.5294  0.5294    1  2.33785E-07 kpt; spin; max resid(k); each band:
  2.38E-13 5.66E-13 5.10E-13 3.04E-13 3.85E-13 1.99E-13 5.22E-13 2.81E-13
  8.61E-13 3.37E-13 2.26E-13 1.60E-08 2.34E-07
   0.1176  0.5588  0.5588    1  5.19799E-09 kpt; spin; max resid(k); each band:
  3.48E-13 5.74E-13 3.09E-13 5.59E-13 4.62E-13 3.33E-13 8.56E-13 4.26E-13
  5.25E-13 3.38E-13 8.35E-13 4.68E-11 5.20E-09
   0.1765  0.5882  0.5882    1  1.55573E-08 kpt; spin; max resid(k); each band:
  5.37E-13 3.03E-13 4.16E-13 7.69E-13 9.71E-13 3.41E-13 6.37E-13 4.38E-13
  6.11E-13 4.80E-13 7.57E-13 6.39E-11 1.56E-08
   0.2353  0.6176  0.6176    1  1.36526E-07 kpt; spin; max resid(k); each band:
  4.90E-13 3.14E-13 9.48E-13 6.30E-13 6.62E-13 6.15E-13 3.42E-13 4.14E-13
  8.89E-13 9.22E-13 4.26E-13 1.59E-11 1.37E-07
   0.2941  0.6471  0.6471    1  6.92910E-07 kpt; spin; max resid(k); each band:
  7.41E-13 3.64E-13 4.26E-13 1.00E-12 6.44E-13 4.13E-13 3.03E-13 6.73E-13
  2.89E-13 9.77E-13 3.65E-13 5.99E-13 6.93E-07
   0.3529  0.6765  0.6765    1  1.91763E-06 kpt; spin; max resid(k); each band:
  2.23E-13 2.71E-13 6.58E-13 4.11E-13 9.89E-13 2.89E-13 4.20E-13 8.43E-13
  9.00E-13 3.13E-13 6.17E-13 1.81E-10 1.92E-06
   0.4118  0.7059  0.7059    1  4.18926E-06 kpt; spin; max resid(k); each band:
  3.76E-13 6.65E-13 8.94E-13 2.94E-13 2.96E-13 8.38E-13 5.29E-13 3.20E-13
  5.95E-13 9.42E-13 9.14E-13 7.52E-08 4.19E-06
   0.4706  0.7353  0.7353    1  1.01116E-05 kpt; spin; max resid(k); each band:
  4.16E-13 3.35E-13 4.70E-13 7.39E-13 9.11E-13 7.33E-13 3.18E-13 5.70E-13
  5.85E-13 4.73E-13 4.26E-13 5.35E-13 1.01E-05
   0.5294  0.7647  0.7647    1  5.97686E-06 kpt; spin; max resid(k); each band:
  5.00E-13 8.93E-13 1.80E-13 5.96E-13 4.93E-13 7.31E-13 4.79E-13 9.07E-13
  4.73E-13 6.76E-13 8.31E-13 7.07E-12 5.98E-06
   0.5882  0.7941  0.7941    1  1.33588E-05 kpt; spin; max resid(k); each band:
  7.25E-13 2.19E-13 2.63E-13 9.99E-13 6.49E-13 3.71E-13 4.09E-13 6.68E-13
  3.08E-13 9.02E-13 9.83E-13 1.53E-11 1.34E-05
   0.6471  0.8235  0.8235    1  5.50142E-04 kpt; spin; max resid(k); each band:
  2.45E-13 3.14E-13 3.66E-13 6.60E-13 7.25E-13 3.17E-13 7.34E-13 2.68E-13
  7.42E-13 3.84E-13 8.42E-13 8.29E-10 5.50E-04
   0.7059  0.8529  0.8529    1  2.71099E-05 kpt; spin; max resid(k); each band:
  4.29E-13 2.70E-13 8.87E-13 7.34E-13 4.03E-13 8.29E-13 7.42E-13 3.37E-13
  4.47E-13 6.96E-13 7.86E-13 2.71E-05 2.50E-07
   0.7647  0.8824  0.8824    1  9.94534E-06 kpt; spin; max resid(k); each band:
  3.91E-13 5.95E-13 4.22E-13 5.60E-13 4.17E-13 5.47E-13 4.55E-13 6.82E-13
  3.79E-13 9.66E-13 5.67E-13 2.19E-09 9.95E-06
   0.8235  0.9118  0.9118    1  5.14246E-06 kpt; spin; max resid(k); each band:
  4.17E-13 6.54E-13 3.36E-13 4.88E-13 5.29E-13 5.75E-13 2.21E-13 4.23E-13
  6.42E-13 4.51E-13 7.55E-13 1.50E-08 5.14E-06
   0.8824  0.9412  0.9412    1  4.95659E-04 kpt; spin; max resid(k); each band:
  6.37E-13 6.69E-13 8.21E-13 9.88E-13 2.42E-13 9.14E-13 5.72E-13 9.04E-13
  5.67E-13 7.92E-13 9.72E-13 7.26E-08 4.96E-04
   0.9412  0.9706  0.9706    1  1.97958E-05 kpt; spin; max resid(k); each band:
  1.79E-13 8.21E-13 3.29E-13 6.32E-13 5.19E-13 7.07E-13 7.95E-13 4.85E-13
  5.40E-13 5.22E-13 8.60E-13 1.98E-05 1.50E-05
   1.0000  1.0000  1.0000    1  9.57067E-13 kpt; spin; max resid(k); each band:
  9.57E-13 5.08E-13 8.45E-13 4.03E-13 3.42E-13 6.08E-13 3.71E-13 7.52E-13
  5.95E-13 7.62E-13 8.87E-13 8.16E-13 5.76E-13
 reduced coordinates (array xred) for    2 atoms
       0.000000000000      0.000000000000      0.000000000000
       0.500000000000      0.500000000000      0.500000000000

 cartesian coordinates (angstrom) at end:
    1      0.00000000000000     0.00000000000000     0.00000000000000
    2      1.98800000000000     1.98800000000000     1.98800000000000
 length scales=  7.513551104353  7.513551104353  7.513551104353 bohr
              =  3.976000000000  3.976000000000  3.976000000000 angstroms
 prteigrs : about to open file agcl.o_DS2_EIG
 Eigenvalues (   eV  ) for nkpt=  40  k points:
 kpt#   1, nband= 13, wtk=  1.00000, kpt=  0.5000  0.0000  0.0000 (reduced coord)
 -13.31637  -9.32639  -6.52850  -6.52850  -0.18702  -0.18702   2.23914   8.81610
  11.16560  11.16560  13.13397  13.13397  22.01959
 kpt#   2, nband= 13, wtk=  1.00000, kpt=  0.4500  0.0000  0.0000 (reduced coord)
 -13.55426  -9.05193  -6.47237  -6.47237  -0.28095  -0.28095   2.17267   9.05551
  10.77139  10.77139  13.53506  13.53506  22.10943
 kpt#   3, nband= 13, wtk=  1.00000, kpt=  0.4000  0.0000  0.0000 (reduced coord)
 -14.12298  -8.37434  -6.30496  -6.30496  -0.54324  -0.54324   2.01199   9.72766
   9.93516   9.93516  14.39719  14.39719  22.35918
 kpt#   4, nband= 13, wtk=  1.00000, kpt=  0.3500  0.0000  0.0000 (reduced coord)
 -14.81429  -7.50635  -6.02961  -6.02961  -0.92520  -0.92520   1.83645   8.91703
   8.91703  10.72930  15.46756  15.46756  22.38571
 kpt#   5, nband= 13, wtk=  1.00000, kpt=  0.3000  0.0000  0.0000 (reduced coord)
 -15.51136  -6.57397  -5.65231  -5.65231  -1.36819  -1.36819   1.71486   7.79923
   7.79923  11.95017  16.66045  16.66045  20.84075
 kpt#   6, nband= 13, wtk=  1.00000, kpt=  0.2500  0.0000  0.0000 (reduced coord)
 -16.15644  -5.65380  -5.18360  -5.18360  -1.81873  -1.81873   1.68875   6.63643
   6.63643  13.27441  17.89088  17.89088  19.39554
 kpt#   7, nband= 13, wtk=  1.00000, kpt=  0.2000  0.0000  0.0000 (reduced coord)
 -16.71650  -4.80782  -4.64117  -4.64117  -2.23412  -2.23412   1.77514   5.48139
   5.48139  14.53309  18.16196  19.04378  19.04378
 kpt#   8, nband= 13, wtk=  1.00000, kpt=  0.1500  0.0000  0.0000 (reduced coord)
 -17.17061  -4.09352  -4.05736  -4.05736  -2.58228  -2.58228   1.96394   4.39240
   4.39240  15.29768  17.47460  19.98490  19.98490
 kpt#   9, nband= 13, wtk=  1.00000, kpt=  0.1000  0.0000  0.0000 (reduced coord)
 -17.50433  -3.55845  -3.49550  -3.49550  -2.83568  -2.83568   2.20858   3.44744
   3.44744  15.06505  17.70311  20.62848  20.63977
 kpt#  10, nband= 13, wtk=  1.00000, kpt=  0.0500  0.0000  0.0000 (reduced coord)
 -17.70830  -3.23107  -3.13446  -3.13446  -2.90739  -2.90739   2.42224   2.76576
   2.76576  14.58741  18.01916  20.98139  21.05330
 kpt#  11, nband= 13, wtk=  1.00000, kpt=  0.0000  0.0000  0.0000 (reduced coord)
 -17.77685  -3.12147  -3.12147  -3.12147  -2.79524  -2.79524   2.50820   2.50820
   2.50820  14.39246  18.09811  21.09164  21.09164
 kpt#  12, nband= 13, wtk=  1.00000, kpt=  0.0000  0.0417  0.0417 (reduced coord)
 -17.71356  -3.16907  -3.12804  -3.12804  -3.08501  -2.77516   2.56999   2.56999
   2.77517  14.57943  18.04258  20.86588  21.14577
 kpt#  13, nband= 13, wtk=  1.00000, kpt=  0.0000  0.0833  0.0833 (reduced coord)
 -17.52755  -3.79332  -3.30650  -3.14023  -3.14023  -2.71599   2.73803   2.73803
   3.42043  15.13187  17.92074  20.29536  20.29541
 kpt#  14, nband= 13, wtk=  1.00000, kpt=  0.0000  0.1250  0.1250 (reduced coord)
 -17.23139  -4.66312  -3.51902  -3.13940  -3.13940  -2.62096   2.96391   2.96391
   4.20442  16.01890  17.80010  19.59731  19.59732
 kpt#  15, nband= 13, wtk=  1.00000, kpt=  0.0000  0.1667  0.1667 (reduced coord)
 -16.84758  -5.52274  -3.78552  -3.10298  -3.10298  -2.49538   3.17736   3.17736
   4.98890  17.18054  17.71332  18.97192  18.97194
 kpt#  16, nband= 13, wtk=  1.00000, kpt=  0.0000  0.2083  0.2083 (reduced coord)
 -16.41062  -6.26367  -4.08219  -3.01091  -3.01091  -2.34671   3.29977   3.29977
   5.71016  17.14543  17.66586  18.54954  18.57179
 kpt#  17, nband= 13, wtk=  1.00000, kpt=  0.0000  0.2500  0.2500 (reduced coord)
 -15.96908  -6.80571  -4.38612  -2.84849  -2.84849  -2.18403   3.26369   3.26369
   6.32552  14.83111  17.65173  18.50087  18.50087
 kpt#  18, nband= 13, wtk=  1.00000, kpt=  0.0000  0.2917  0.2917 (reduced coord)
 -15.57972  -7.08590  -4.67662  -2.60692  -2.60692  -2.01798   3.03581   3.03581
   6.76121  12.76492  17.66098  18.80677  18.80677
 kpt#  19, nband= 13, wtk=  1.00000, kpt=  0.0000  0.3333  0.3333 (reduced coord)
 -15.29089  -7.07294  -4.93641  -2.28353  -2.28353  -1.86005   2.62794   2.62794
   6.83821  11.16573  17.68394  19.47610  19.47610
 kpt#  20, nband= 13, wtk=  1.00000, kpt=  0.0000  0.3750  0.3750 (reduced coord)
 -15.11878  -6.79616  -5.15181  -1.88280  -1.88280  -1.72182   2.08805   2.08805
   6.30819  10.32788  17.71176  20.44102  20.44102
 kpt#  21, nband= 13, wtk=  1.00000, kpt=  0.0000  0.4167  0.4167 (reduced coord)
 -15.04143  -6.36540  -5.31261  -1.61409  -1.42198  -1.42198   1.48457   1.48457
   5.36246  10.13370  17.73711  21.57639  21.57639
 kpt#  22, nband= 13, wtk=  1.00000, kpt=  0.0000  0.4583  0.4583 (reduced coord)
 -15.01779  -5.96420  -5.41182  -1.54559  -0.95644  -0.95644   0.91551   0.91551
   4.54265  10.16233  17.75457  22.64257  22.64258
 kpt#  23, nband= 13, wtk=  1.00000, kpt=  0.0000  0.5000  0.5000 (reduced coord)
 -15.01394  -5.79758  -5.44534  -1.52181  -0.70330  -0.70330   0.62493   0.62493
   4.22416  10.19108  17.76087  23.13885  23.14218
 kpt#  24, nband= 13, wtk=  1.00000, kpt=  0.0588  0.5294  0.5294 (reduced coord)
 -14.96955  -5.81588  -5.48921  -2.25731  -0.78864   0.14182   0.59700   0.69323
   4.19047  10.44283  17.64988  22.00343  22.98274
 kpt#  25, nband= 13, wtk=  1.00000, kpt=  0.1176  0.5588  0.5588 (reduced coord)
 -14.84037  -5.86457  -5.64901  -3.17672  -0.96033   0.51355   0.89085   1.38947
   4.09112  11.11930  17.35270  20.65726  22.57646
 kpt#  26, nband= 13, wtk=  1.00000, kpt=  0.1765  0.5882  0.5882 (reduced coord)
 -14.64095  -5.97888  -5.92746  -3.99393  -1.04270   0.37500   1.19711   2.74875
   3.93090  12.00272  16.99867  19.39608  22.04394
 kpt#  27, nband= 13, wtk=  1.00000, kpt=  0.2353  0.6176  0.6176 (reduced coord)
 -14.39846  -6.48099  -5.98378  -4.68605  -0.91874   0.18297   1.58306   3.72056
   4.18818  12.73025  16.88583  18.24909  21.49756
 kpt#  28, nband= 13, wtk=  1.00000, kpt=  0.2941  0.6471  0.6471 (reduced coord)
 -14.15909  -7.06418  -6.01301  -5.24471  -0.60215  -0.05897   2.01508   3.48095
   5.68341  12.89245  17.24145  17.39909  21.01166
 kpt#  29, nband= 13, wtk=  1.00000, kpt=  0.3529  0.6765  0.6765 (reduced coord)
 -13.99361  -7.58263  -5.99784  -5.66500  -0.34476  -0.20409   2.45622   3.25304
   7.19956  12.56808  16.39853  18.46393  20.16722
 kpt#  30, nband= 13, wtk=  1.00000, kpt=  0.4118  0.7059  0.7059 (reduced coord)
 -13.98956  -7.88819  -5.94391  -5.92537  -0.66550   0.10703   2.86701   3.10516
   8.66801  12.15691  15.74922  18.52306  19.69002
 kpt#  31, nband= 13, wtk=  1.00000, kpt=  0.4706  0.7353  0.7353 (reduced coord)
 -14.20612  -7.88370  -6.08003  -5.78732  -1.00978   0.16571   3.09081   3.20749
   9.92082  11.94953  15.32365  17.15876  20.20915
 kpt#  32, nband= 13, wtk=  1.00000, kpt=  0.5294  0.7647  0.7647 (reduced coord)
 -14.62445  -7.56836  -6.07375  -5.58018  -1.36441  -0.06270   3.14838   3.44263
  10.55075  12.11955  15.14528  16.49492  20.16405
 kpt#  33, nband= 13, wtk=  1.00000, kpt=  0.5882  0.7941  0.7941 (reduced coord)
 -15.16587  -7.01449  -5.92740  -5.30551  -1.71558  -0.48410   3.15415   3.55106
  10.14069  12.72192  15.22136  16.96179  20.21208
 kpt#  34, nband= 13, wtk=  1.00000, kpt=  0.6471  0.8235  0.8235 (reduced coord)
 -15.74788  -6.30956  -5.64620  -4.97069  -2.04978  -0.99452   3.06565   3.53180
   9.00155  13.67589  15.53348  18.26148  20.39035
 kpt#  35, nband= 13, wtk=  1.00000, kpt=  0.7059  0.8529  0.8529 (reduced coord)
 -16.30922  -5.53072  -5.23942  -4.58970  -2.35443  -1.51932   2.91806   3.40405
   7.60785  14.77335  16.03487  19.85256  19.93499
 kpt#  36, nband= 13, wtk=  1.00000, kpt=  0.7647  0.8824  0.8824 (reduced coord)
 -16.80909  -4.74802  -4.72358  -4.18488  -2.61863  -2.00559   2.76247   3.20074
   6.18427  15.59710  16.65049  19.21988  20.66291
 kpt#  37, nband= 13, wtk=  1.00000, kpt=  0.8235  0.9118  0.9118 (reduced coord)
 -17.22062  -4.12922  -4.03286  -3.78888  -2.83342  -2.41360   2.63593   2.96251
   4.84251  15.59252  17.27343  19.46371  20.83122
 kpt#  38, nband= 13, wtk=  1.00000, kpt=  0.8824  0.9412  0.9412 (reduced coord)
 -17.52608  -3.51666  -3.46565  -3.44574  -2.99182  -2.70810   2.55534   2.73552
   3.67880  15.05612  17.76701  20.22758  21.13853
 kpt#  39, nband= 13, wtk=  1.00000, kpt=  0.9412  0.9706  0.9706 (reduced coord)
 -17.71363  -3.20748  -3.15880  -3.08882  -3.00650  -2.82569   2.51778   2.56958
   2.83241  14.57443  18.03022  20.86602  21.11122
 kpt#  40, nband= 13, wtk=  1.00000, kpt=  1.0000  1.0000  1.0000 (reduced coord)
 -17.77685  -3.12147  -3.12147  -3.12147  -2.79524  -2.79524   2.50820   2.50820
   2.50820  14.39246  18.09811  21.09164  21.09164
 Total charge density [el/Bohr^3]
,     Maximum=    7.0010E-01  at reduced coord.    0.1333    0.8667    0.9000
,Next maximum=    7.0010E-01  at reduced coord.    0.1000    0.8667    0.9000
,     Minimum=    1.0828E-03  at reduced coord.    0.0000    0.0000    0.0000
,Next minimum=    8.7446E-03  at reduced coord.    0.0333    0.0000    0.0000
,  Integrated=    1.8000E+01

== END DATASET(S) ==============================================================
================================================================================
  
 -outvars: echo values of variables after computation  --------
            acell      7.5135511044E+00  7.5135511044E+00  7.5135511044E+00 Bohr
              amu      1.07868200E+02  3.54527000E+01
           diemac      1.20000000E+01
             ecut      3.00000000E+01 Hartree
           enunit1          0
           enunit2          1
           etotal1    -5.9955033641E+01
            fcart1    -0.0000000000E+00 -0.0000000000E+00 -0.0000000000E+00
                      -0.0000000000E+00 -0.0000000000E+00 -0.0000000000E+00
-          fftalg         112
           getden1          0
           getden2         -1
             iscf1          7
             iscf2         -2
           istwfk2       3    0    0    0    0    0    0    0    0    0
                         2    0    0    0    0    0    0    0    0    0
                         0    0    8    0    0    0    0    0    0    0
                         0    0    0    0    0    0    0    0    0    0
           jdtset        1    2
              kpt1    -8.33333333E-02 -1.66666667E-01  0.00000000E+00
                      -8.33333333E-02 -3.33333333E-01  0.00000000E+00
                      -1.66666667E-01 -2.50000000E-01  0.00000000E+00
                      -8.33333333E-02 -2.50000000E-01  8.33333333E-02
                      -8.33333333E-02  5.00000000E-01  0.00000000E+00
                      -1.66666667E-01 -4.16666667E-01  0.00000000E+00
                      -8.33333333E-02 -4.16666667E-01  8.33333333E-02
                      -2.50000000E-01 -3.33333333E-01  0.00000000E+00
                      -1.66666667E-01 -3.33333333E-01  8.33333333E-02
                      -8.33333333E-02 -3.33333333E-01  1.66666667E-01
                      -8.33333333E-02  3.33333333E-01  0.00000000E+00
                      -1.66666667E-01  4.16666667E-01  0.00000000E+00
                      -2.50000000E-01  5.00000000E-01  0.00000000E+00
                      -1.66666667E-01  5.00000000E-01  8.33333333E-02
                      -3.33333333E-01 -4.16666667E-01  0.00000000E+00
                      -2.50000000E-01 -4.16666667E-01  8.33333333E-02
                      -1.66666667E-01 -4.16666667E-01  1.66666667E-01
                      -8.33333333E-02 -4.16666667E-01  2.50000000E-01
                      -8.33333333E-02  1.66666667E-01  0.00000000E+00
                      -1.66666667E-01  2.50000000E-01  0.00000000E+00
                      -2.50000000E-01  3.33333333E-01  0.00000000E+00
                      -3.33333333E-01  4.16666667E-01  0.00000000E+00
                      -4.16666667E-01  5.00000000E-01  0.00000000E+00
                      -3.33333333E-01  5.00000000E-01  8.33333333E-02
                      -2.50000000E-01  5.00000000E-01  1.66666667E-01
                      -8.33333333E-02  0.00000000E+00  0.00000000E+00
                      -2.50000000E-01  0.00000000E+00  0.00000000E+00
                      -4.16666667E-01  0.00000000E+00  0.00000000E+00
              kpt2     5.00000000E-01  0.00000000E+00  0.00000000E+00
                       4.50000000E-01  0.00000000E+00  0.00000000E+00
                       4.00000000E-01  0.00000000E+00  0.00000000E+00
                       3.50000000E-01  0.00000000E+00  0.00000000E+00
                       3.00000000E-01  0.00000000E+00  0.00000000E+00
                       2.50000000E-01  0.00000000E+00  0.00000000E+00
                       2.00000000E-01  0.00000000E+00  0.00000000E+00
                       1.50000000E-01  0.00000000E+00  0.00000000E+00
                       1.00000000E-01  0.00000000E+00  0.00000000E+00
                       5.00000000E-02  0.00000000E+00  0.00000000E+00
                       0.00000000E+00  0.00000000E+00  0.00000000E+00
                       0.00000000E+00  4.16666667E-02  4.16666667E-02
                       0.00000000E+00  8.33333333E-02  8.33333333E-02
                       0.00000000E+00  1.25000000E-01  1.25000000E-01
                       0.00000000E+00  1.66666667E-01  1.66666667E-01
                       0.00000000E+00  2.08333333E-01  2.08333333E-01
                       0.00000000E+00  2.50000000E-01  2.50000000E-01
                       0.00000000E+00  2.91666667E-01  2.91666667E-01
                       0.00000000E+00  3.33333333E-01  3.33333333E-01
                       0.00000000E+00  3.75000000E-01  3.75000000E-01
                       0.00000000E+00  4.16666667E-01  4.16666667E-01
                       0.00000000E+00  4.58333333E-01  4.58333333E-01
                       0.00000000E+00  5.00000000E-01  5.00000000E-01
                       5.88235294E-02  5.29411765E-01  5.29411765E-01
                       1.17647059E-01  5.58823529E-01  5.58823529E-01
                       1.76470588E-01  5.88235294E-01  5.88235294E-01
                       2.35294118E-01  6.17647059E-01  6.17647059E-01
                       2.94117647E-01  6.47058824E-01  6.47058824E-01
                       3.52941176E-01  6.76470588E-01  6.76470588E-01
                       4.11764706E-01  7.05882353E-01  7.05882353E-01
                       4.70588235E-01  7.35294118E-01  7.35294118E-01
                       5.29411765E-01  7.64705882E-01  7.64705882E-01
                       5.88235294E-01  7.94117647E-01  7.94117647E-01
                       6.47058824E-01  8.23529412E-01  8.23529412E-01
                       7.05882353E-01  8.52941176E-01  8.52941176E-01
                       7.64705882E-01  8.82352941E-01  8.82352941E-01
                       8.23529412E-01  9.11764706E-01  9.11764706E-01
                       8.82352941E-01  9.41176471E-01  9.41176471E-01
                       9.41176471E-01  9.70588235E-01  9.70588235E-01
                       1.00000000E+00  1.00000000E+00  1.00000000E+00
           kptopt1          1
           kptopt2         -3
         kptrlatt        6   -6    6     -6    6    6     -6   -6    6
          kptrlen1     4.50813066E+01
          kptrlen2     3.00000000E+01
P           mkmem1         28
P           mkmem2         40
            natom           2
            nband1         10
            nband2         13
           nbdbuf1          0
           nbdbuf2          2
           ndtset           2
            ngfft          30      30      30
             nkpt1         28
             nkpt2         40
            nstep          40
             nsym          48
           ntypat           2
              occ      2.000000  2.000000  2.000000  2.000000  2.000000  2.000000
                       2.000000  2.000000  2.000000  0.000000
            rprim      0.0000000000E+00  5.0000000000E-01  5.0000000000E-01
                       5.0000000000E-01  0.0000000000E+00  5.0000000000E-01
                       5.0000000000E-01  5.0000000000E-01  0.0000000000E+00
           shiftk      5.00000000E-01  5.00000000E-01  5.00000000E-01
          spgroup         225
           strten1    -2.2259870435E-02 -2.2259870435E-02 -2.2259870435E-02
                       0.0000000000E+00  0.0000000000E+00  0.0000000000E+00
           symrel      1  0  0   0  1  0   0  0  1      -1  0  0   0 -1  0   0  0 -1
                       0 -1  1   0 -1  0   1 -1  0       0  1 -1   0  1  0  -1  1  0
                      -1  0  0  -1  0  1  -1  1  0       1  0  0   1  0 -1   1 -1  0
                       0  1 -1   1  0 -1   0  0 -1       0 -1  1  -1  0  1   0  0  1
                      -1  0  0  -1  1  0  -1  0  1       1  0  0   1 -1  0   1  0 -1
                       0 -1  1   1 -1  0   0 -1  0       0  1 -1  -1  1  0   0  1  0
                       1  0  0   0  0  1   0  1  0      -1  0  0   0  0 -1   0 -1  0
                       0  1 -1   0  0 -1   1  0 -1       0 -1  1   0  0  1  -1  0  1
                      -1  0  1  -1  1  0  -1  0  0       1  0 -1   1 -1  0   1  0  0
                       0 -1  0   1 -1  0   0 -1  1       0  1  0  -1  1  0   0  1 -1
                       1  0 -1   0  0 -1   0  1 -1      -1  0  1   0  0  1   0 -1  1
                       0  1  0   0  0  1   1  0  0       0 -1  0   0  0 -1  -1  0  0
                       1  0 -1   0  1 -1   0  0 -1      -1  0  1   0 -1  1   0  0  1
                       0 -1  0   0 -1  1   1 -1  0       0  1  0   0  1 -1  -1  1  0
                      -1  0  1  -1  0  0  -1  1  0       1  0 -1   1  0  0   1 -1  0
                       0  1  0   1  0  0   0  0  1       0 -1  0  -1  0  0   0  0 -1
                       0  0 -1   0  1 -1   1  0 -1       0  0  1   0 -1  1  -1  0  1
                       1 -1  0   0 -1  1   0 -1  0      -1  1  0   0  1 -1   0  1  0
                       0  0  1   1  0  0   0  1  0       0  0 -1  -1  0  0   0 -1  0
                      -1  1  0  -1  0  0  -1  0  1       1 -1  0   1  0  0   1  0 -1
                       0  0  1   0  1  0   1  0  0       0  0 -1   0 -1  0  -1  0  0
                       1 -1  0   0 -1  0   0 -1  1      -1  1  0   0  1  0   0  1 -1
                       0  0 -1   1  0 -1   0  1 -1       0  0  1  -1  0  1   0 -1  1
                      -1  1  0  -1  0  1  -1  0  0       1 -1  0   1  0 -1   1  0  0
           toldfe1     1.00000000E-06 Hartree
           toldfe2     0.00000000E+00 Hartree
           tolwfr1     0.00000000E+00
           tolwfr2     1.00000000E-12
            typat      1  2
              wtk1       0.02778    0.02778    0.02778    0.05556    0.02778    0.02778
                         0.05556    0.02778    0.05556    0.05556    0.02778    0.02778
                         0.02778    0.05556    0.02778    0.05556    0.05556    0.05556
                         0.02778    0.02778    0.02778    0.02778    0.02778    0.05556
                         0.05556    0.00926    0.00926    0.00926
              wtk2       1.00000    1.00000    1.00000    1.00000    1.00000    1.00000
                         1.00000    1.00000    1.00000    1.00000    1.00000    1.00000
                         1.00000    1.00000    1.00000    1.00000    1.00000    1.00000
                         1.00000    1.00000    1.00000    1.00000    1.00000    1.00000
                         1.00000    1.00000    1.00000    1.00000    1.00000    1.00000
                         1.00000    1.00000    1.00000    1.00000    1.00000    1.00000
                         1.00000    1.00000    1.00000    1.00000
           xangst      0.0000000000E+00  0.0000000000E+00  0.0000000000E+00
                       1.9880000000E+00  1.9880000000E+00  1.9880000000E+00
            xcart      0.0000000000E+00  0.0000000000E+00  0.0000000000E+00
                       3.7567755522E+00  3.7567755522E+00  3.7567755522E+00
             xred      0.0000000000E+00  0.0000000000E+00  0.0000000000E+00
                       5.0000000000E-01  5.0000000000E-01  5.0000000000E-01
            znucl       47.00000   17.00000

================================================================================

- Total cpu        time (s,m,h):         49.5        0.83      0.014
- Total wall clock time (s,m,h):         87.3        1.45      0.024
-
- For major independent code sections, cpu and wall times (sec),
-  as well as % of the time and number of calls for node 0-
-<BEGIN_TIMER mpi_nprocs = 1, omp_nthreads = 1, mpi_rank = 0>
- cpu_time =           49.5, wall_time =           87.3
-
- routine                        cpu     %       wall     %      number of calls  Gflops 
-                                                                  (-1=no count)
- fourwf%(pot)                  34.191  69.0     34.326  39.3          36141      -1.00    
- nonlop(apply)                  4.156   8.4      4.203   4.8          36141      -1.00    
- projbd                         3.260   6.6      3.224   3.7          53682      -1.00    
- vtowfk(ssdiag)                 1.286   2.6      1.287   1.5             -1      -1.00    
- fourwf%(den)                   1.056   2.1      1.059   1.2           2016      -1.00    
- getghc-other                   0.996   2.0      0.950   1.1             -1      -1.00    
- pspini                         0.350   0.7      0.373   0.4              2      -1.00    
- invars2                        0.252   0.5      0.253   0.3              2      -1.00    
- abinit(2)                      0.121   0.2     18.649  21.4              1      -1.00    
- others (95)                    0.514   1.0      0.514   0.6             -1      -1.00    
-<END_TIMER>
-
- subtotal                      46.183  93.3     64.838  74.3

- For major independent code sections, cpu and wall times (sec),
- as well as % of the total time and number of calls 

-<BEGIN_TIMER mpi_nprocs = 1, omp_nthreads = 1, mpi_rank = world>
- cpu_time =          49.5, wall_time =          87.3
-
- routine                         cpu     %       wall     %      number of calls Gflops 
-                                                                  (-1=no count)
- fourwf%(pot)                  34.191  69.0     34.326  39.3          36141      -1.00    
- nonlop(apply)                  4.156   8.4      4.203   4.8          36141      -1.00    
- projbd                         3.260   6.6      3.224   3.7          53682      -1.00    
- vtowfk(ssdiag)                 1.286   2.6      1.287   1.5             -1      -1.00    
- fourwf%(den)                   1.056   2.1      1.059   1.2           2016      -1.00    
- getghc-other                   0.996   2.0      0.950   1.1             -1      -1.00    
- pspini                         0.350   0.7      0.373   0.4              2      -1.00    
- invars2                        0.252   0.5      0.253   0.3              2      -1.00    
- abinit(2)                      0.121   0.2     18.649  21.4              1      -1.00    
- others (95)                    0.514   1.0      0.514   0.6             -1      -1.00    
-<END_TIMER>

- subtotal                      46.183  93.3     64.838  74.3

================================================================================

 Suggested references for the acknowledgment of ABINIT usage.

 The users of ABINIT have little formal obligations with respect to the ABINIT group
 (those specified in the GNU General Public License, http://www.gnu.org/copyleft/gpl.txt).
 However, it is common practice in the scientific literature,
 to acknowledge the efforts of people that have made the research possible.
 In this spirit, please find below suggested citations of work written by ABINIT developers,
 corresponding to implementations inside of ABINIT that you have used in the present run.
 Note also that it will be of great value to readers of publications presenting these results,
 to read papers enabling them to understand the theoretical formalism and details
 of the ABINIT implementation.
 For information on why they are suggested, see also http://www.abinit.org/about/?text=acknowledgments.

 [1] ABINIT : First-principles approach of materials and nanosystem properties.
 X. Gonze, B. Amadon, P.-M. Anglade, J.-M. Beuken, F. Bottin, P. Boulanger, F. Bruneval,
 D. Caliste, R. Caracas, M. Cote, T. Deutsch, L. Genovese, Ph. Ghosez, M. Giantomassi
 S. Goedecker, D.R. Hamann, P. Hermet, F. Jollet, G. Jomard, S. Leroux, M. Mancini, S. Mazevet,
 M.J.T. Oliveira, G. Onida, Y. Pouillon, T. Rangel, G.-M. Rignanese, D. Sangalli, R. Shaltaf,
 M. Torrent, M.J. Verstraete, G. Zerah, J.W. Zwanziger
 Computer Phys. Comm. 180, 2582-2615 (2009).
 Comment : the third generic paper describing the ABINIT project.
 Note that a version of this paper, that is not formatted for Computer Phys. Comm. 
 is available at http://www.abinit.org/about/ABINIT_CPC_v10.pdf .
 The licence allows the authors to put it on the Web.

 [2] A brief introduction to the ABINIT software package.
 X. Gonze, G.-M. Rignanese, M. Verstraete, J.-M. Beuken, Y. Pouillon, R. Caracas, F. Jollet,
 M. Torrent, G. Zerah, M. Mikami, Ph. Ghosez, M. Veithen, J.-Y. Raty, V. Olevano, F. Bruneval,
 L. Reining, R. Godby, G. Onida, D.R. Hamann, and D.C. Allan.
 Z. Kristallogr. 220, 558-562 (2005).
 Comment : the second generic paper describing the ABINIT project. Note that this paper
 should be cited especially if you are using the GW part of ABINIT, as several authors
 of this part are not in the list of authors of the first or third paper.
 The .pdf of the latter paper is available at http://www.abinit.org/about/zfk_0505-06_558-562.pdf.
 Note that it should not redistributed (Copyright by Oldenburg Wissenshaftverlag,
 the licence allows the authors to put it on the Web).


 And optionally :

 [3] First-principles computation of material properties : the ABINIT software project. 
 X. Gonze, J.-M. Beuken, R. Caracas, F. Detraux, M. Fuchs, G.-M. Rignanese, L. Sindic,
 M. Verstraete, G. Zerah, F. Jollet, M. Torrent, A. Roy, M. Mikami, Ph. Ghosez, J.-Y. Raty, D.C. Allan.
 Computational Materials Science 25, 478-492 (2002). http://dx.doi.org/10.1016/S0927-0256(02)00325-7
 Comment : the original paper describing the ABINIT project.

 [4] Fast radix 2, 3, 4 and 5 kernels for Fast Fourier Transformations
 on computers with overlapping multiply-add instructions.
 S. Goedecker, SIAM J. on Scientific Computing 18, 1605 (1997).
-
- Proc.   0 individual time (sec): cpu=         49.5  wall=         87.3

================================================================================

 Calculation completed.
.Delivered    2 WARNINGs and   5 COMMENTs to log file.
+Overall time at end (sec) : cpu=         49.5  wall=         87.3
